LAMMPS data file. msi2lmp v3.9.8 / 06 Oct 2016 / CGCMM for Fe_exp46x1x80_12-1_-111_101

   2352 atoms

   4 atom types

  -162.011304909   159.680195091 xlo xhi
    -0.412081227     4.532918773 ylo yhi
  -162.512606107   160.493793893 zlo zhi

Masses

   1  26.982000 # Fe
   2  58.710000 # 
   3  26.982000 # 
   4  58.710000 # 

Atoms # full

  16806    3    -15.734915776     3.349522878   -38.357018522  # 
  16812    3    -15.734915776     5.822025405   -38.357018522  # 
  16815    3    -13.403818037     5.018754905   -38.357018522  # 
  16816    3     -9.907171429     5.056360299   -40.375808383  # 
  16817    3    -11.072720299     1.743786532   -38.357018522  # 
  16818    3     -8.741622560     3.414536153   -38.357018522  # 
  16821    3    -13.403818037     2.546252377   -38.357018522  # 
  16822    3     -9.907171429     2.583857771   -40.375808383  # 
  16823    3    -11.072720299     4.216289060   -38.357018522  # 
  16824    3     -8.741622560     5.887038680   -38.357018522  # 
  16825    3     -7.576073691     1.781387613   -40.375808383  # 
  16826    3     -5.244975952     3.451877946   -40.375808383  # 
  16827    3     -6.410524822     5.085882550   -38.357018522  # 
  16828    3     -2.913878214     5.122696812   -40.375808383  # 
  16829    3     -4.079427083     1.812682102   -38.357018522  # 
  16830    1     -1.748329344     3.484787910   -38.357018522  # Fe
  16831    3     -7.576073691     4.253890141   -40.375808383  # 
  16832    3     -5.244975952     5.924380473   -40.375808383  # 
  16833    3     -6.410524822     2.613380022   -38.357018522  # 
  16834    3     -2.913878214     2.650194284   -40.375808383  # 
  16835    3     -4.079427083     4.285184630   -38.357018522  # 
  16836    1     -1.748329344     5.957290437   -38.357018522  # Fe
  16837    3     -0.582780475     1.848697380   -40.375808383  # 
  16838    3      1.748317263     3.519740729   -40.375808383  # 
  16839    1      0.582768394     5.157025180   -38.357018522  # Fe
  16840    3      4.079415002     5.190671280   -40.375808383  # 
  16841    3      2.913866133     1.884213413   -38.357018522  # 
  16842    3      5.244963871     3.556189197   -38.357018522  # 
  16843    3     -0.582780475     4.321199908   -40.375808383  # 
  16844    3      1.748317263     5.992243256   -40.375808383  # 
  16845    1      0.582768394     2.684522652   -38.357018522  # Fe
  16846    3      4.079415002     2.718168752   -40.375808383  # 
  16847    3      2.913866133     4.356715941   -38.357018522  # 
  16848    3      5.244963871     6.028691724   -38.357018522  # 
  16849    3      6.410512741     1.916337884   -40.375808383  # 
  16850    3      8.741610479     3.586614475   -40.375808383  # 
  16851    3      7.576061610     5.227783290   -38.357018522  # 
  16852    3     11.072708218     5.256374306   -40.375808383  # 
  16853    3      9.907159348     1.953842237   -38.357018522  # 
  16854    3     12.238257087     3.624248411   -38.357018522  # 
  16855    3      6.410512741     4.388840412   -40.375808383  # 
  16856    3      8.741610479     6.059117002   -40.375808383  # 
  16857    3      7.576061610     2.755280762   -38.357018522  # 
  16858    3     11.072708218     2.783871778   -40.375808383  # 
  16859    3      9.907159348     4.426344765   -38.357018522  # 
  16860    3     12.238257087     6.096750938   -38.357018522  # 
  16863    3     14.569354825     5.293892677   -38.357018522  # 
  16865    3     16.900452564     2.017690678   -38.357018522  # 
  16869    3     14.569354825     2.821390149   -38.357018522  # 
  16871    3     16.900452564     4.490193206   -38.357018522  # 
  17346    3    -22.728208991     3.272530818   -34.319438802  # 
  17352    3    -22.728208991     5.745033345   -34.319438802  # 
  17354    3    -19.231562384     3.311165188   -36.338228662  # 
  17355    3    -20.397111253     4.940030267   -34.319438802  # 
  17356    3    -16.900464645     4.979739850   -36.338228662  # 
  17357    3    -18.066013514     1.663701197   -34.319438802  # 
  17358    1    -15.734915776     3.333546703   -34.319438802  # Fe
  17360    3    -19.231562384     5.783667715   -36.338228662  # 
  17361    3    -20.397111253     2.467527739   -34.319438802  # 
  17362    3    -16.900464645     2.507237322   -36.338228662  # 
  17363    3    -18.066013514     4.136203725   -34.319438802  # 
  17364    1    -15.734915776     5.806049230   -34.319438802  # Fe
  17365    3    -14.569366906     1.704325432   -36.338228662  # 
  17366    1    -12.238269168     3.374877385   -36.338228662  # Fe
  17367    1    -13.403818037     5.004526048   -34.319438802  # Fe
  17368    1     -9.907171429     5.046306616   -36.338228662  # Fe
  17369    1    -11.072720299     1.731564795   -34.319438802  # Fe
  17370    1     -8.741622560     3.404566362   -34.319438802  # Fe
  17371    3    -14.569366906     4.176827960   -36.338228662  # 
  17372    1    -12.238269168     5.847379912   -36.338228662  # Fe
  17373    1    -13.403818037     2.532023520   -34.319438802  # Fe
  17374    1     -9.907171429     2.573804088   -36.338228662  # Fe
  17375    1    -11.072720299     4.204067323   -34.319438802  # Fe
  17376    1     -8.741622560     5.877068889   -34.319438802  # Fe
  17377    1     -7.576073691     1.773493323   -36.338228662  # Fe
  17378    1     -5.244975952     3.446303011   -36.338228662  # Fe
  17379    1     -6.410524822     5.078380438   -34.319438802  # Fe
  17380    1     -2.913878214     5.119559561   -36.338228662  # Fe
  17381    1     -4.079427083     1.807820111   -34.319438802  # Fe
  17382    1     -1.748329344     3.482682654   -34.319438802  # Fe
  17383    1     -7.576073691     4.245995851   -36.338228662  # Fe
  17384    1     -5.244975952     5.918805538   -36.338228662  # Fe
  17385    1     -6.410524822     2.605877910   -34.319438802  # Fe
  17386    1     -2.913878214     2.647057033   -36.338228662  # Fe
  17387    1     -4.079427083     4.280322639   -34.319438802  # Fe
  17388    1     -1.748329344     5.955185181   -34.319438802  # Fe
  17389    1     -0.582780475     1.848066427   -36.338228662  # Fe
  17390    1      1.748317263     3.521630052   -36.338228662  # Fe
  17391    1      0.582768394     5.157728376   -34.319438802  # Fe
  17392    1      4.079415002     5.195039201   -36.338228662  # Fe
  17393    1      2.913866133     1.887707704   -34.319438802  # Fe
  17394    1      5.244963871     3.562389562   -34.319438802  # Fe
  17395    1     -0.582780475     4.320568955   -36.338228662  # Fe
  17396    1      1.748317263     5.994132579   -36.338228662  # Fe
  17397    1      0.582768394     2.685225848   -34.319438802  # Fe
  17398    1      4.079415002     2.722536673   -36.338228662  # Fe
  17399    1      2.913866133     4.360210232   -34.319438802  # Fe
  17400    1      5.244963871     6.034892089   -34.319438802  # Fe
  17401    1      6.410512741     1.923090097   -36.338228662  # Fe
  17402    1      8.741610479     3.595610667   -36.338228662  # Fe
  17403    1      7.576061610     5.236543812   -34.319438802  # Fe
  17404    1     11.072708218     5.267437425   -36.338228662  # Fe
  17405    1      9.907159348     1.964967114   -34.319438802  # Fe
  17406    1     12.238257087     3.637505555   -34.319438802  # Fe
  17407    1      6.410512741     4.395592625   -36.338228662  # Fe
  17408    1      8.741610479     6.068113194   -36.338228662  # Fe
  17409    1      7.576061610     2.764041284   -34.319438802  # Fe
  17410    1     11.072708218     2.794934897   -36.338228662  # Fe
  17411    1      9.907159348     4.437469642   -34.319438802  # Fe
  17412    1     12.238257087     6.110008082   -34.319438802  # Fe
  17413    3     13.403805956     1.993435382   -36.338228662  # 
  17414    3     15.734903695     3.663515298   -36.338228662  # 
  17415    1     14.569354825     5.309028077   -34.319438802  # Fe
  17416    3     18.066001433     5.332603048   -36.338228662  # 
  17417    1     16.900452564     2.034441914   -34.319438802  # Fe
  17418    3     19.231550303     3.703705206   -34.319438802  # 
  17419    3     13.403805956     4.465937910   -36.338228662  # 
  17420    3     15.734903695     6.136017825   -36.338228662  # 
  17421    1     14.569354825     2.836525549   -34.319438802  # Fe
  17422    3     18.066001433     2.860100520   -36.338228662  # 
  17423    1     16.900452564     4.506944442   -34.319438802  # Fe
  17424    3     19.231550303     6.176207733   -34.319438802  # 
  17425    3     20.397099172     2.055652597   -36.338228662  # 
  17427    3     21.562648041     5.371792232   -34.319438802  # 
  17429    3     23.893745780     2.093703163   -34.319438802  # 
  17431    3     20.397099172     4.528155125   -36.338228662  # 
  17433    3     21.562648041     2.899289704   -34.319438802  # 
  17435    3     23.893745780     4.566205691   -34.319438802  # 
  17894    3    -26.224855599     3.234355395   -32.300648942  # 
  17895    3    -27.390404468     4.861696650   -30.281859081  # 
  17896    3    -23.893757861     4.900421408   -32.300648942  # 
  17897    3    -25.059306730     1.582340089   -30.281859081  # 
  17898    1    -22.728208991     3.249347329   -30.281859081  # Fe
  17900    3    -26.224855599     5.706857922   -32.300648942  # 
  17901    3    -27.390404468     2.389194122   -30.281859081  # 
  17902    3    -23.893757861     2.427918880   -32.300648942  # 
  17903    3    -25.059306730     4.054842617   -30.281859081  # 
  17904    1    -22.728208991     5.721849856   -30.281859081  # Fe
  17905    3    -21.562660122     1.622747790   -32.300648942  # 
  17906    1    -19.231562384     3.291386772   -32.300648942  # Fe
  17907    1    -20.397111253     4.917785309   -30.281859081  # Fe
  17908    1    -16.900464645     4.961353573   -32.300648942  # Fe
  17909    1    -18.066013514     1.642702494   -30.281859081  # Fe
  17910    1    -15.734915776     3.314134982   -30.281859081  # Fe
  17911    3    -21.562660122     4.095250318   -32.300648942  # 
  17912    1    -19.231562384     5.763889299   -32.300648942  # Fe
  17913    1    -20.397111253     2.445282781   -30.281859081  # Fe
  17914    1    -16.900464645     2.488851045   -32.300648942  # Fe
  17915    1    -18.066013514     4.115205022   -30.281859081  # Fe
  17916    1    -15.734915776     5.786637509   -30.281859081  # Fe
  17917    1    -14.569366906     1.687634129   -32.300648942  # Fe
  17918    1    -12.238269168     3.360192700   -32.300648942  # Fe
  17919    1    -13.403818037     4.987065952   -30.281859081  # Fe
  17920    1     -9.907171429     5.033934857   -32.300648942  # Fe
  17921    1    -11.072720299     1.716430446   -30.281859081  # Fe
  17922    1     -8.741622560     3.392121544   -30.281859081  # Fe
  17923    1    -14.569366906     4.160136657   -32.300648942  # Fe
  17924    1    -12.238269168     5.832695227   -32.300648942  # Fe
  17925    1    -13.403818037     2.514563424   -30.281859081  # Fe
  17926    1     -9.907171429     2.561432329   -32.300648942  # Fe
  17927    1    -11.072720299     4.188932974   -30.281859081  # Fe
  17928    1     -8.741622560     5.864624071   -30.281859081  # Fe
  17929    1     -7.576073691     1.763718170   -32.300648942  # Fe
  17930    1     -5.244975952     3.439366515   -32.300648942  # Fe
  17931    1     -6.410524822     5.068954522   -30.281859081  # Fe
  17932    1     -2.913878214     5.115643678   -32.300648942  # Fe
  17933    1     -4.079427083     1.801682209   -30.281859081  # Fe
  17934    1     -1.748329344     3.480017659   -30.281859081  # Fe
  17935    1     -7.576073691     4.236220698   -32.300648942  # Fe
  17936    1     -5.244975952     5.911869042   -32.300648942  # Fe
  17937    1     -6.410524822     2.596451994   -30.281859081  # Fe
  17938    1     -2.913878214     2.643141150   -32.300648942  # Fe
  17939    1     -4.079427083     4.274184737   -30.281859081  # Fe
  17940    1     -1.748329344     5.952520186   -30.281859081  # Fe
  17941    1     -0.582780475     1.847277782   -32.300648942  # Fe
  17942    1      1.748317263     3.523990468   -32.300648942  # Fe
  17943    1      0.582768394     5.158619029   -30.281859081  # Fe
  17944    1      4.079415002     5.200483712   -32.300648942  # Fe
  17945    1      2.913866133     1.892126184   -30.281859081  # Fe
  17946    1      5.244963871     3.570200340   -30.281859081  # Fe
  17947    1     -0.582780475     4.319780310   -32.300648942  # Fe
  17948    1      1.748317263     5.996492995   -32.300648942  # Fe
  17949    1      0.582768394     2.686116501   -30.281859081  # Fe
  17950    1      4.079415002     2.727981184   -32.300648942  # Fe
  17951    1      2.913866133     4.364628712   -30.281859081  # Fe
  17952    1      5.244963871     6.042702867   -30.281859081  # Fe
  17953    1      6.410512741     1.931472816   -32.300648942  # Fe
  17954    1      8.741610479     3.606717419   -32.300648942  # Fe
  17955    1      7.576061610     5.247517172   -30.281859081  # Fe
  17956    1     11.072708218     5.281002944   -32.300648942  # Fe
  17957    1      9.907159348     1.978800606   -30.281859081  # Fe
  17958    1     12.238257087     3.653849408   -30.281859081  # Fe
  17959    1      6.410512741     4.403975344   -32.300648942  # Fe
  17960    1      8.741610479     6.079219946   -32.300648942  # Fe
  17961    1      7.576061610     2.775014644   -30.281859081  # Fe
  17962    1     11.072708218     2.808500416   -32.300648942  # Fe
  17963    1      9.907159348     4.451303134   -30.281859081  # Fe
  17964    1     12.238257087     6.126351935   -30.281859081  # Fe
  17965    1     13.403805956     2.009162361   -32.300648942  # Fe
  17966    1     15.734903695     3.681092773   -32.300648942  # Fe
  17967    1     14.569354825     5.327510553   -30.281859081  # Fe
  17968    1     18.066001433     5.351722242   -32.300648942  # Fe
  17969    1     16.900452564     2.054691477   -30.281859081  # Fe
  17970    1     19.231550303     3.725367713   -30.281859081  # Fe
  17971    1     13.403805956     4.481664889   -32.300648942  # Fe
  17972    1     15.734903695     6.153595300   -32.300648942  # Fe
  17973    1     14.569354825     2.855008025   -30.281859081  # Fe
  17974    1     18.066001433     2.879219714   -32.300648942  # Fe
  17975    1     16.900452564     4.527194005   -30.281859081  # Fe
  17976    1     19.231550303     6.197870240   -30.281859081  # Fe
  17977    1     20.397099172     2.076019200   -32.300648942  # Fe
  17978    3     22.728196910     3.744000350   -32.300648942  # 
  17979    1     21.562648041     5.394542632   -30.281859081  # Fe
  17980    3     25.059294649     5.410692724   -32.300648942  # 
  17981    3     23.893745780     2.117252154   -30.281859081  # 
  17982    3     26.224843518     3.783570186   -30.281859081  # 
  17983    1     20.397099172     4.548521728   -32.300648942  # Fe
  17984    3     22.728196910     6.216502877   -32.300648942  # 
  17985    1     21.562648041     2.922040104   -30.281859081  # Fe
  17986    3     25.059294649     2.938190196   -32.300648942  # 
  17987    3     23.893745780     4.589754682   -30.281859081  # 
  17988    3     26.224843518     6.256072713   -30.281859081  # 
  17991    3     28.555941257     5.448570003   -30.281859081  # 
  17997    3     28.555941257     2.976067475   -30.281859081  # 
  18436    3    -30.887051076     4.824538842   -28.263069221  # 
  18437    3    -32.052599946     1.506236162   -26.244279361  # 
  18438    3    -29.721502207     3.169231148   -26.244279361  # 
  18442    3    -30.887051076     2.352036314   -28.263069221  # 
  18443    3    -32.052599946     3.978738690   -26.244279361  # 
  18444    3    -29.721502207     5.641733675   -26.244279361  # 
  18445    3    -28.555953338     1.543285657   -28.263069221  # 
  18446    3    -26.224855599     3.208362172   -28.263069221  # 
  18447    1    -27.390404468     4.833576403   -26.244279361  # Fe
  18448    1    -23.893757861     4.874872736   -28.263069221  # Fe
  18449    1    -25.059306730     1.554401477   -26.244279361  # Fe
  18450    1    -22.728208991     3.221853537   -26.244279361  # Fe
  18451    3    -28.555953338     4.015788185   -28.263069221  # 
  18452    3    -26.224855599     5.680864699   -28.263069221  # 
  18453    1    -27.390404468     2.361073875   -26.244279361  # Fe
  18454    1    -23.893757861     2.402370208   -28.263069221  # Fe
  18455    1    -25.059306730     4.026904005   -26.244279361  # Fe
  18456    1    -22.728208991     5.694356064   -26.244279361  # Fe
  18457    1    -21.562660122     1.597916626   -28.263069221  # Fe
  18458    1    -19.231562384     3.267595664   -28.263069221  # Fe
  18459    1    -20.397111253     4.891060328   -26.244279361  # Fe
  18460    1    -16.900464645     4.938973830   -28.263069221  # Fe
  18461    1    -18.066013514     1.617135375   -26.244279361  # Fe
  18462    1    -15.734915776     3.290179371   -26.244279361  # Fe
  18463    1    -21.562660122     4.070419154   -28.263069221  # Fe
  18464    1    -19.231562384     5.740098191   -28.263069221  # Fe
  18465    1    -20.397111253     2.418557800   -26.244279361  # Fe
  18466    1    -16.900464645     2.466471302   -28.263069221  # Fe
  18467    1    -18.066013514     4.089637903   -26.244279361  # Fe
  18468    1    -15.734915776     5.762681898   -26.244279361  # Fe
  18469    1    -14.569366906     1.667079922   -28.263069221  # Fe
  18470    1    -12.238269168     3.341908397   -28.263069221  # Fe
  18471    1    -13.403818037     4.965232186   -26.244279361  # Fe
  18472    1     -9.907171429     5.018374446   -28.263069221  # Fe
  18473    1    -11.072720299     1.697267473   -26.244279361  # Fe
  18474    1     -8.741622560     3.376186845   -26.244279361  # Fe
  18475    1    -14.569366906     4.139582450   -28.263069221  # Fe
  18476    1    -12.238269168     5.814410924   -28.263069221  # Fe
  18477    1    -13.403818037     2.492729658   -26.244279361  # Fe
  18478    1     -9.907171429     2.545871918   -28.263069221  # Fe
  18479    1    -11.072720299     4.169770001   -26.244279361  # Fe
  18480    1     -8.741622560     5.848689372   -26.244279361  # Fe
  18481    1     -7.576073691     1.751316882   -28.263069221  # Fe
  18482    1     -5.244975952     3.430506717   -28.263069221  # Fe
  18483    1     -6.410524822     5.056772487   -26.244279361  # Fe
  18484    1     -2.913878214     5.110619388   -28.263069221  # Fe
  18485    1     -4.079427083     1.793694909   -26.244279361  # Fe
  18486    1     -1.748329344     3.476535845   -26.244279361  # Fe
  18487    1     -7.576073691     4.223819410   -28.263069221  # Fe
  18488    1     -5.244975952     5.903009244   -28.263069221  # Fe
  18489    1     -6.410524822     2.584269959   -26.244279361  # Fe
  18490    1     -2.913878214     2.638116860   -28.263069221  # Fe
  18491    1     -4.079427083     4.266197437   -26.244279361  # Fe
  18492    1     -1.748329344     5.949038372   -26.244279361  # Fe
  18493    1     -0.582780475     1.846263894   -28.263069221  # Fe
  18494    1      1.748317263     3.527023014   -28.263069221  # Fe
  18495    1      0.582768394     5.159783611   -26.244279361  # Fe
  18496    1      4.079415002     5.207455664   -28.263069221  # Fe
  18497    1      2.913866133     1.897889654   -26.244279361  # Fe
  18498    1      5.244963871     3.580333115   -26.244279361  # Fe
  18499    1     -0.582780475     4.318766422   -28.263069221  # Fe
  18500    1      1.748317263     5.999525541   -28.263069221  # Fe
  18501    1      0.582768394     2.687281083   -26.244279361  # Fe
  18502    1      4.079415002     2.734953136   -28.263069221  # Fe
  18503    1      2.913866133     4.370392182   -26.244279361  # Fe
  18504    1      5.244963871     6.052835642   -26.244279361  # Fe
  18505    1      6.410512741     1.942146424   -28.263069221  # Fe
  18506    1      8.741610479     3.620750194   -28.263069221  # Fe
  18507    1      7.576061610     5.261637121   -26.244279361  # Fe
  18508    1     11.072708218     5.297981611   -28.263069221  # Fe
  18509    1      9.907159348     1.996418136   -26.244279361  # Fe
  18510    1     12.238257087     3.674417766   -26.244279361  # Fe
  18511    1      6.410512741     4.414648952   -28.263069221  # Fe
  18512    1      8.741610479     6.093252721   -28.263069221  # Fe
  18513    1      7.576061610     2.789134593   -26.244279361  # Fe
  18514    1     11.072708218     2.825479083   -28.263069221  # Fe
  18515    1      9.907159348     4.468920664   -26.244279361  # Fe
  18516    1     12.238257087     6.146920293   -26.244279361  # Fe
  18517    1     13.403805956     2.028638330   -28.263069221  # Fe
  18518    1     15.734903695     3.702613783   -28.263069221  # Fe
  18519    1     14.569354825     5.350471995   -26.244279361  # Fe
  18520    1     18.066001433     5.374856963   -28.263069221  # Fe
  18521    1     16.900452564     2.079513374   -26.244279361  # Fe
  18522    1     19.231550303     3.751566509   -26.244279361  # Fe
  18523    1     13.403805956     4.501140858   -28.263069221  # Fe
  18524    1     15.734903695     6.175116310   -28.263069221  # Fe
  18525    1     14.569354825     2.877969467   -26.244279361  # Fe
  18526    1     18.066001433     2.902354435   -28.263069221  # Fe
  18527    1     16.900452564     4.552015902   -26.244279361  # Fe
  18528    1     19.231550303     6.224069036   -26.244279361  # Fe
  18529    1     20.397099172     2.100373768   -28.263069221  # Fe
  18530    1     22.728196910     3.769227455   -28.263069221  # Fe
  18531    1     21.562648041     5.421696523   -26.244279361  # Fe
  18532    1     25.059294649     5.436494760   -28.263069221  # Fe
  18533    1     23.893745780     2.145004914   -26.244279361  # Fe
  18534    1     26.224843518     3.811628959   -26.244279361  # Fe
  18535    1     20.397099172     4.572876296   -28.263069221  # Fe
  18536    1     22.728196910     6.241729982   -28.263069221  # Fe
  18537    1     21.562648041     2.949193995   -26.244279361  # Fe
  18538    1     25.059294649     2.963992232   -28.263069221  # Fe
  18539    1     23.893745780     4.617507442   -26.244279361  # Fe
  18540    1     26.224843518     6.284131486   -26.244279361  # Fe
  18541    3     27.390392387     2.157269744   -28.263069221  # 
  18542    3     29.721490126     3.821670182   -28.263069221  # 
  18543    3     28.555941257     5.476699556   -26.244279361  # 
  18545    3     30.887038995     2.195348144   -26.244279361  # 
  18547    3     27.390392387     4.629772272   -28.263069221  # 
  18548    3     29.721490126     6.294172709   -28.263069221  # 
  18549    3     28.555941257     3.004197028   -26.244279361  # 
  18551    3     30.887038995     4.667850672   -26.244279361  # 
  18986    3    -33.218148815     3.132541876   -24.225489500  # 
  18987    3    -34.383697684     4.758580973   -22.206699640  # 
  18988    3    -30.887051076     4.794649279   -24.225489500  # 
  18989    3    -32.052599946     1.474676124   -22.206699640  # 
  18990    1    -29.721502207     3.137094657   -22.206699640  # Fe
  18992    3    -33.218148815     5.605044403   -24.225489500  # 
  18993    3    -34.383697684     2.286078445   -22.206699640  # 
  18994    3    -30.887051076     2.322146751   -24.225489500  # 
  18995    3    -32.052599946     3.947178652   -22.206699640  # 
  18996    1    -29.721502207     5.609597184   -22.206699640  # Fe
  18997    1    -28.555953338     1.513100528   -24.225489500  # Fe
  18998    1    -26.224855599     3.178062251   -24.225489500  # Fe
  18999    1    -27.390404468     4.801004578   -22.206699640  # Fe
  19000    1    -23.893757861     4.844696903   -24.225489500  # Fe
  19001    1    -25.059306730     1.521593584   -22.206699640  # Fe
  19002    1    -22.728208991     3.189082245   -22.206699640  # Fe
  19003    1    -28.555953338     3.985603056   -24.225489500  # Fe
  19004    1    -26.224855599     5.650564778   -24.225489500  # Fe
  19005    1    -27.390404468     2.328502050   -22.206699640  # Fe
  19006    1    -23.893757861     2.372194375   -24.225489500  # Fe
  19007    1    -25.059306730     3.994096112   -22.206699640  # Fe
  19008    1    -22.728208991     5.661584772   -22.206699640  # Fe
  19009    1    -21.562660122     1.568173118   -24.225489500  # Fe
  19010    1    -19.231562384     3.238672447   -24.225489500  # Fe
  19011    1    -20.397111253     4.858688362   -22.206699640  # Fe
  19012    1    -16.900464645     4.911345753   -24.225489500  # Fe
  19013    1    -18.066013514     1.585631689   -22.206699640  # Fe
  19014    1    -15.734915776     3.260131275   -22.206699640  # Fe
  19015    1    -21.562660122     4.040675646   -24.225489500  # Fe
  19016    1    -19.231562384     5.711174974   -24.225489500  # Fe
  19017    1    -20.397111253     2.386185834   -22.206699640  # Fe
  19018    1    -16.900464645     2.438843225   -24.225489500  # Fe
  19019    1    -18.066013514     4.058134217   -22.206699640  # Fe
  19020    1    -15.734915776     5.732633802   -22.206699640  # Fe
  19021    1    -14.569366906     1.641309150   -24.225489500  # Fe
  19022    1    -12.238269168     3.318633668   -24.225489500  # Fe
  19023    1    -13.403818037     4.937347803   -22.206699640  # Fe
  19024    1     -9.907171429     4.998284543   -24.225489500  # Fe
  19025    1    -11.072720299     1.672360901   -22.206699640  # Fe
  19026    1     -8.741622560     3.355137983   -22.206699640  # Fe
  19027    1    -14.569366906     4.113811678   -24.225489500  # Fe
  19028    1    -12.238269168     5.791136195   -24.225489500  # Fe
  19029    1    -13.403818037     2.464845275   -22.206699640  # Fe
  19030    1     -9.907171429     2.525782015   -24.225489500  # Fe
  19031    1    -11.072720299     4.144863429   -22.206699640  # Fe
  19032    1     -8.741622560     5.827640510   -22.206699640  # Fe
  19033    1     -7.576073691     1.735105368   -24.225489500  # Fe
  19034    1     -5.244975952     3.418809198   -24.225489500  # Fe
  19035    1     -6.410524822     5.040456550   -22.206699640  # Fe
  19036    1     -2.913878214     5.103941128   -24.225489500  # Fe
  19037    1     -4.079427083     1.782885006   -22.206699640  # Fe
  19038    1     -1.748329344     3.471794630   -22.206699640  # Fe
  19039    1     -7.576073691     4.207607896   -24.225489500  # Fe
  19040    1     -5.244975952     5.891311725   -24.225489500  # Fe
  19041    1     -6.410524822     2.567954022   -22.206699640  # Fe
  19042    1     -2.913878214     2.631438600   -24.225489500  # Fe
  19043    1     -4.079427083     4.255387534   -22.206699640  # Fe
  19044    1     -1.748329344     5.944297157   -22.206699640  # Fe
  19045    1     -0.582780475     1.844912214   -24.225489500  # Fe
  19046    1      1.748317263     3.531061854   -24.225489500  # Fe
  19047    1      0.582768394     5.161371426   -22.206699640  # Fe
  19048    1      4.079415002     5.216695722   -24.225489500  # Fe
  19049    1      2.913866133     1.905718364   -22.206699640  # Fe
  19050    1      5.244963871     3.593981991   -22.206699640  # Fe
  19051    1     -0.582780475     4.317414742   -24.225489500  # Fe
  19052    1      1.748317263     6.003564381   -24.225489500  # Fe
  19053    1      0.582768394     2.688868898   -22.206699640  # Fe
  19054    1      4.079415002     2.744193194   -24.225489500  # Fe
  19055    1      2.913866133     4.378220892   -22.206699640  # Fe
  19056    1      5.244963871     6.066484518   -22.206699640  # Fe
  19057    1      6.410512741     1.956173945   -24.225489500  # Fe
  19058    1      8.741610479     3.638985595   -24.225489500  # Fe
  19059    1      7.576061610     5.280425040   -22.206699640  # Fe
  19060    1     11.072708218     5.319751593   -24.225489500  # Fe
  19061    1      9.907159348     2.019507540   -22.206699640  # Fe
  19062    1     12.238257087     3.700920389   -22.206699640  # Fe
  19063    1      6.410512741     4.428676473   -24.225489500  # Fe
  19064    1      8.741610479     6.111488122   -24.225489500  # Fe
  19065    1      7.576061610     2.807922512   -22.206699640  # Fe
  19066    1     11.072708218     2.847249065   -24.225489500  # Fe
  19067    1      9.907159348     4.492010068   -22.206699640  # Fe
  19068    1     12.238257087     6.173422916   -22.206699640  # Fe
  19069    1     13.403805956     2.053244871   -24.225489500  # Fe
  19070    1     15.734903695     3.729388670   -24.225489500  # Fe
  19071    1     14.569354825     5.379533970   -22.206699640  # Fe
  19072    1     18.066001433     5.403197513   -24.225489500  # Fe
  19073    1     16.900452564     2.110370327   -22.206699640  # Fe
  19074    1     19.231550303     3.783570143   -22.206699640  # Fe
  19075    1     13.403805956     4.525747399   -24.225489500  # Fe
  19076    1     15.734903695     6.201891197   -24.225489500  # Fe
  19077    1     14.569354825     2.907031442   -22.206699640  # Fe
  19078    1     18.066001433     2.930694985   -24.225489500  # Fe
  19079    1     16.900452564     4.582872855   -22.206699640  # Fe
  19080    1     19.231550303     6.256072670   -22.206699640  # Fe
  19081    1     20.397099172     2.129760943   -24.225489500  # Fe
  19082    1     22.728196910     3.799230417   -24.225489500  # Fe
  19083    1     21.562648041     5.454319776   -22.206699640  # Fe
  19084    1     25.059294649     5.466766569   -24.225489500  # Fe
  19085    1     23.893745780     2.177833822   -22.206699640  # Fe
  19086    1     26.224843518     3.844347936   -22.206699640  # Fe
  19087    1     20.397099172     4.602263471   -24.225489500  # Fe
  19088    1     22.728196910     6.271732944   -24.225489500  # Fe
  19089    1     21.562648041     2.981817248   -22.206699640  # Fe
  19090    1     25.059294649     2.994264041   -24.225489500  # Fe
  19091    1     23.893745780     4.650336350   -22.206699640  # Fe