LAMMPS data file. msi2lmp v3.9.8 / 06 Oct 2016 / CGCMM for Fe_exp46x1x80_12-1_-111_101

   2350 atoms

   4 atom types

  -161.865611301   159.825888699 xlo xhi
    -0.412081227     4.532918773 ylo yhi
  -163.017303572   159.989096428 zlo zhi

Masses

   1  26.982000 # Fe
   2  58.710000 # 
   3  26.982000 # 
   4  58.710000 # 

Atoms # full

  16806    3    -15.589222167     3.352589847   -38.861715987  # 
  16812    3    -15.589222167     5.825092374   -38.861715987  # 
  16815    3    -13.258124428     5.021668628   -38.861715987  # 
  16817    3    -10.927026690     1.746515541   -38.861715987  # 
  16818    3     -8.595928951     3.417049405   -38.861715987  # 
  16821    3    -13.258124428     2.549166100   -38.861715987  # 
  16823    3    -10.927026690     4.219018069   -38.861715987  # 
  16824    3     -8.595928951     5.889551932   -38.861715987  # 
  16825    3     -7.430380082     1.783625282   -40.880505848  # 
  16826    3     -5.099282343     3.453879028   -40.880505848  # 
  16827    3     -6.264831213     5.088150807   -38.861715987  # 
  16828    3     -2.768184605     5.124441313   -40.880505848  # 
  16829    3     -3.933733474     1.814679392   -38.861715987  # 
  16830    3     -1.602635735     3.486492918   -38.861715987  # 
  16831    3     -7.430380082     4.256127810   -40.880505848  # 
  16832    3     -5.099282343     5.926381555   -40.880505848  # 
  16833    3     -6.264831213     2.615648279   -38.861715987  # 
  16834    3     -2.768184605     2.651938785   -40.880505848  # 
  16835    3     -3.933733474     4.287181920   -38.861715987  # 
  16836    3     -1.602635735     5.958995445   -38.861715987  # 
  16837    3     -0.437086866     1.850169698   -40.880505848  # 
  16838    3      1.894010872     3.520930405   -40.880505848  # 
  16839    3      0.728462003     5.158422414   -38.861715987  # 
  16840    3      4.225108611     5.191573438   -40.880505848  # 
  16841    3      3.059559742     1.885294000   -38.861715987  # 
  16842    3      5.390657480     3.556951208   -38.861715987  # 
  16843    3     -0.437086866     4.322672226   -40.880505848  # 
  16844    3      1.894010872     5.993432932   -40.880505848  # 
  16845    3      0.728462003     2.685919886   -38.861715987  # 
  16846    3      4.225108611     2.719070910   -40.880505848  # 
  16847    3      3.059559742     4.357796528   -38.861715987  # 
  16848    3      5.390657480     6.029453735   -38.861715987  # 
  16849    3      6.556206350     1.916953307   -40.880505848  # 
  16850    3      8.887304088     3.586949323   -40.880505848  # 
  16851    3      7.721755219     5.228231576   -38.861715987  # 
  16853    3     10.052852957     1.953987805   -38.861715987  # 
  16854    3     12.383950696     3.624107451   -38.861715987  # 
  16855    3      6.556206350     4.389455835   -40.880505848  # 
  16856    3      8.887304088     6.059451850   -40.880505848  # 
  16857    3      7.721755219     2.755729048   -38.861715987  # 
  16859    3     10.052852957     4.426490333   -38.861715987  # 
  16860    3     12.383950696     6.096609978   -38.861715987  # 
  16863    3     14.715048434     5.293485380   -38.861715987  # 
  16869    3     14.715048434     2.820982852   -38.861715987  # 
  17346    3    -22.582515382     3.276324600   -34.824136267  # 
  17352    3    -22.582515382     5.748827127   -34.824136267  # 
  17354    3    -19.085868775     3.314625416   -36.842926127  # 
  17355    3    -20.251417644     4.943772534   -34.824136267  # 
  17356    3    -16.754771036     4.983093619   -36.842926127  # 
  17357    3    -17.920319905     1.667358745   -34.824136267  # 
  17358    1    -15.589222167     3.337082070   -34.824136267  # Fe
  17360    3    -19.085868775     5.787127943   -36.842926127  # 
  17361    3    -20.251417644     2.471270006   -34.824136267  # 
  17362    3    -16.754771036     2.510591091   -36.842926127  # 
  17363    3    -17.920319905     4.139861273   -34.824136267  # 
  17364    1    -15.589222167     5.809584597   -34.824136267  # Fe
  17365    3    -14.423673297     1.707538426   -36.842926127  # 
  17366    3    -12.092575559     3.377913320   -36.842926127  # 
  17367    1    -13.258124428     5.007898250   -34.824136267  # Fe
  17368    1     -9.761477820     5.049128515   -36.842926127  # Fe
  17369    1    -10.927026690     1.734730576   -34.824136267  # Fe
  17370    1     -8.595928951     3.407481968   -34.824136267  # Fe
  17371    3    -14.423673297     4.180040954   -36.842926127  # 
  17372    3    -12.092575559     5.850415847   -36.842926127  # 
  17373    1    -13.258124428     2.535395722   -34.824136267  # Fe
  17374    1     -9.761477820     2.576625987   -36.842926127  # Fe
  17375    1    -10.927026690     4.207233104   -34.824136267  # Fe
  17376    1     -8.595928951     5.879984495   -34.824136267  # Fe
  17377    1     -7.430380082     1.776065133   -36.842926127  # Fe
  17378    1     -5.099282343     3.448591450   -36.842926127  # Fe
  17379    1     -6.264831213     5.081003846   -34.824136267  # Fe
  17380    1     -2.768184605     5.121536014   -36.842926127  # Fe
  17381    1     -3.933733474     1.810113523   -34.824136267  # Fe
  17382    1     -1.602635735     3.484614969   -34.824136267  # Fe
  17383    1     -7.430380082     4.248567661   -36.842926127  # Fe
  17384    1     -5.099282343     5.921093977   -36.842926127  # Fe
  17385    1     -6.264831213     2.608501318   -34.824136267  # Fe
  17386    1     -2.768184605     2.649033486   -36.842926127  # Fe
  17387    1     -3.933733474     4.282616051   -34.824136267  # Fe
  17388    1     -1.602635735     5.957117496   -34.824136267  # Fe
  17389    1     -0.437086866     1.849708678   -36.842926127  # Fe
  17390    1      1.894010872     3.522923616   -36.842926127  # Fe
  17391    1      0.728462003     5.159277306   -34.824136267  # Fe
  17392    1      4.225108611     5.195978076   -36.842926127  # Fe
  17393    1      3.059559742     1.888861213   -34.824136267  # Fe
  17394    1      5.390657480     3.563146402   -34.824136267  # Fe
  17395    1     -0.437086866     4.322211206   -36.842926127  # Fe
  17396    1      1.894010872     5.995426143   -36.842926127  # Fe
  17397    1      0.728462003     2.686774778   -34.824136267  # Fe
  17398    1      4.225108611     2.723475548   -36.842926127  # Fe
  17399    1      3.059559742     4.361363741   -34.824136267  # Fe
  17400    1      5.390657480     6.035648929   -34.824136267  # Fe
  17401    1      6.556206350     1.923676837   -36.842926127  # Fe
  17402    1      8.887304088     3.595855797   -36.842926127  # Fe
  17403    1      7.721755219     5.236913109   -34.824136267  # Fe
  17404    3     11.218401827     5.267358315   -36.842926127  # 
  17405    1     10.052852957     1.964967115   -34.824136267  # Fe
  17406    1     12.383950696     3.637161780   -34.824136267  # Fe
  17407    1      6.556206350     4.396179365   -36.842926127  # Fe
  17408    1      8.887304088     6.068358324   -36.842926127  # Fe
  17409    1      7.721755219     2.764410581   -34.824136267  # Fe
  17410    3     11.218401827     2.794855787   -36.842926127  # 
  17411    1     10.052852957     4.437469643   -34.824136267  # Fe
  17412    1     12.383950696     6.109664307   -34.824136267  # Fe
  17413    3     13.549499565     1.993054761   -36.842926127  # 
  17414    3     15.880597304     3.662859619   -36.842926127  # 
  17415    1     14.715048434     5.308371174   -34.824136267  # Fe
  17416    3     18.211695042     5.331700892   -36.842926127  # 
  17417    3     17.046146173     2.033505519   -34.824136267  # 
  17418    3     19.377243912     3.702524026   -34.824136267  # 
  17419    3     13.549499565     4.465557289   -36.842926127  # 
  17420    3     15.880597304     6.135362146   -36.842926127  # 
  17421    1     14.715048434     2.835868646   -34.824136267  # Fe
  17422    3     18.211695042     2.859198364   -36.842926127  # 
  17423    3     17.046146173     4.506008047   -34.824136267  # 
  17424    3     19.377243912     6.175026553   -34.824136267  # 
  17427    3     21.708341650     5.370400476   -34.824136267  # 
  17433    3     21.708341650     2.897897948   -34.824136267  # 
  17894    3    -26.079161990     3.238404576   -32.805346407  # 
  17895    3    -27.244710859     4.865971661   -30.786556546  # 
  17896    3    -23.748064252     4.904475964   -32.805346407  # 
  17897    3    -24.913613121     1.586652543   -30.786556546  # 
  17898    1    -22.582515382     3.253670840   -30.786556546  # Fe
  17900    3    -26.079161990     5.710907103   -32.805346407  # 
  17901    3    -27.244710859     2.393469133   -30.786556546  # 
  17902    3    -23.748064252     2.431973436   -32.805346407  # 
  17903    3    -24.913613121     4.059155071   -30.786556546  # 
  17904    1    -22.582515382     5.726173367   -30.786556546  # Fe
  17905    3    -21.416966513     1.626779546   -32.805346407  # 
  17906    1    -19.085868775     3.295361815   -32.805346407  # Fe
  17907    1    -20.251417644     4.922086689   -30.786556546  # Fe
  17908    1    -16.754771036     4.965232187   -32.805346407  # Fe
  17909    1    -17.920319905     1.646941188   -30.786556546  # Fe
  17910    1    -15.589222167     3.318262943   -30.786556546  # Fe
  17911    3    -21.416966513     4.099282074   -32.805346407  # 
  17912    1    -19.085868775     5.767864342   -32.805346407  # Fe
  17913    1    -20.251417644     2.449584161   -30.786556546  # Fe
  17914    1    -16.754771036     2.492729659   -32.805346407  # Fe
  17915    1    -17.920319905     4.119443716   -30.786556546  # Fe
  17916    1    -15.589222167     5.790765470   -30.786556546  # Fe
  17917    1    -14.423673297     1.691371203   -32.805346407  # Fe
  17918    1    -12.092575559     3.363738760   -32.805346407  # Fe
  17919    1    -13.258124428     4.991028194   -30.786556546  # Fe
  17920    1     -9.761477820     5.037237837   -32.805346407  # Fe
  17921    1    -10.927026690     1.720166529   -30.786556546  # Fe
  17922    1     -8.595928951     3.395568135   -30.786556546  # Fe
  17923    1    -14.423673297     4.163873731   -32.805346407  # Fe
  17924    1    -12.092575559     5.836241287   -32.805346407  # Fe
  17925    1    -13.258124428     2.518525666   -30.786556546  # Fe
  17926    1     -9.761477820     2.564735309   -32.805346407  # Fe
  17927    1    -10.927026690     4.192669057   -30.786556546  # Fe
  17928    1     -8.595928951     5.868070662   -30.786556546  # Fe
  17929    1     -7.430380082     1.766725925   -32.805346407  # Fe
  17930    1     -5.099282343     3.442029940   -32.805346407  # Fe
  17931    1     -6.264831213     5.072049037   -30.786556546  # Fe
  17932    1     -2.768184605     5.117920106   -32.805346407  # Fe
  17933    1     -3.933733474     1.804367239   -30.786556546  # Fe
  17934    1     -1.602635735     3.482245632   -30.786556546  # Fe
  17935    1     -7.430380082     4.239228453   -32.805346407  # Fe
  17936    1     -5.099282343     5.914532467   -32.805346407  # Fe
  17937    1     -6.264831213     2.599546509   -30.786556546  # Fe
  17938    1     -2.768184605     2.645417578   -32.805346407  # Fe
  17939    1     -3.933733474     4.276869767   -30.786556546  # Fe
  17940    1     -1.602635735     5.954748159   -30.786556546  # Fe
  17941    1     -0.437086866     1.849134194   -32.805346407  # Fe
  17942    1      1.894010872     3.525406000   -32.805346407  # Fe
  17943    1      0.728462003     5.160356321   -30.786556546  # Fe
  17944    1      4.225108611     5.201451027   -32.805346407  # Fe
  17945    1      3.059559742     1.893355917   -30.786556546  # Fe
  17946    1      5.390657480     3.570923312   -30.786556546  # Fe
  17947    1     -0.437086866     4.321636722   -32.805346407  # Fe
  17948    1      1.894010872     5.997908527   -32.805346407  # Fe
  17949    1      0.728462003     2.687853793   -30.786556546  # Fe
  17950    1      4.225108611     2.728948499   -32.805346407  # Fe
  17951    1      3.059559742     4.365858445   -30.786556546  # Fe
  17952    1      5.390657480     6.043425839   -30.786556546  # Fe
  17953    1      6.556206350     1.931998120   -32.805346407  # Fe
  17954    1      8.887304088     3.606819187   -32.805346407  # Fe
  17955    1      7.721755219     5.247750812   -30.786556546  # Fe
  17956    1     11.218401827     5.280709645   -32.805346407  # Fe
  17957    1     10.052852957     1.978576275   -30.786556546  # Fe
  17958    1     12.383950696     3.653208676   -30.786556546  # Fe
  17959    1      6.556206350     4.404500648   -32.805346407  # Fe
  17960    1      8.887304088     6.079321714   -32.805346407  # Fe
  17961    1      7.721755219     2.775248284   -30.786556546  # Fe
  17962    1     11.218401827     2.808207117   -32.805346407  # Fe
  17963    1     10.052852957     4.451078803   -30.786556546  # Fe
  17964    1     12.383950696     6.125711203   -30.786556546  # Fe
  17965    1     13.549499565     2.008509642   -32.805346407  # Fe
  17966    1     15.880597304     3.680120542   -32.805346407  # Fe
  17967    1     14.715048434     5.326501181   -30.786556546  # Fe
  17968    1     18.211695042     5.350472023   -32.805346407  # Fe
  17969    1     17.046146173     2.053363698   -30.786556546  # Fe
  17970    1     19.377243912     3.723771204   -30.786556546  # Fe
  17971    1     13.549499565     4.481012170   -32.805346407  # Fe
  17972    1     15.880597304     6.152623069   -32.805346407  # Fe
  17973    1     14.715048434     2.853998653   -30.786556546  # Fe
  17974    1     18.211695042     2.877969495   -32.805346407  # Fe
  17975    1     17.046146173     4.525866226   -30.786556546  # Fe
  17976    1     19.377243912     6.196273731   -30.786556546  # Fe
  17977    3     20.542792781     2.074531981   -32.805346407  # 
  17978    3     22.873890519     3.742315003   -32.805346407  # 
  17979    1     21.708341650     5.392724326   -30.786556546  # Fe
  17980    3     25.204988258     5.408844987   -32.805346407  # 
  17981    3     24.039439389     2.115254866   -30.786556546  # 
  17982    3     26.370537127     3.781431915   -30.786556546  # 
  17983    3     20.542792781     4.547034509   -32.805346407  # 
  17984    3     22.873890519     6.214817530   -32.805346407  # 
  17985    1     21.708341650     2.920221798   -30.786556546  # Fe
  17986    3     25.204988258     2.936342459   -32.805346407  # 
  17987    3     24.039439389     4.587757394   -30.786556546  # 
  17988    3     26.370537127     6.253934442   -30.786556546  # 
  18437    3    -31.906906337     1.510799291   -26.748976826  # 
  18438    3    -29.575808598     3.173916086   -26.748976826  # 
  18443    3    -31.906906337     3.983301819   -26.748976826  # 
  18444    3    -29.575808598     5.646418613   -26.748976826  # 
  18445    3    -28.410259729     1.547774469   -28.767766686  # 
  18446    3    -26.079161990     3.212923623   -28.767766686  # 
  18447    1    -27.244710859     4.838371247   -26.748976826  # Fe
  18448    1    -23.748064252     4.879483749   -28.767766686  # Fe
  18449    1    -24.913613121     1.559288048   -26.748976826  # Fe
  18450    1    -22.582515382     3.226805725   -26.748976826  # Fe
  18451    3    -28.410259729     4.020276997   -28.767766686  # 
  18452    3    -26.079161990     5.685426150   -28.767766686  # 
  18453    1    -27.244710859     2.365868719   -26.748976826  # Fe
  18454    1    -23.748064252     2.406981221   -28.767766686  # Fe
  18455    1    -24.913613121     4.031790576   -26.748976826  # Fe
  18456    1    -22.582515382     5.699308252   -26.748976826  # Fe
  18457    1    -21.416966513     1.602546532   -28.767766686  # Fe
  18458    1    -19.085868775     3.272205036   -28.767766686  # Fe
  18459    1    -20.251417644     4.896042301   -26.748976826  # Fe
  18460    1    -16.754771036     4.943513629   -28.767766686  # Fe
  18461    1    -17.920319905     1.622099859   -26.748976826  # Fe
  18462    1    -15.589222167     3.295066317   -26.748976826  # Fe
  18463    1    -21.416966513     4.075049060   -28.767766686  # Fe
  18464    1    -19.085868775     5.744707563   -28.767766686  # Fe
  18465    1    -20.251417644     2.423539773   -26.748976826  # Fe
  18466    1    -16.754771036     2.471011101   -28.767766686  # Fe
  18467    1    -17.920319905     4.094602387   -26.748976826  # Fe
  18468    1    -15.589222167     5.767568844   -26.748976826  # Fe
  18469    1    -14.423673297     1.671491263   -28.767766686  # Fe
  18470    1    -12.092575559     3.346123330   -28.767766686  # Fe
  18471    1    -13.258124428     4.969968355   -26.748976826  # Fe
  18472    1     -9.761477820     5.022318132   -28.767766686  # Fe
  18473    1    -10.927026690     1.701767552   -26.748976826  # Fe
  18474    1     -8.595928951     3.380356745   -26.748976826  # Fe
  18475    1    -14.423673297     4.143993791   -28.767766686  # Fe
  18476    1    -12.092575559     5.818625857   -28.767766686  # Fe
  18477    1    -13.258124428     2.497465827   -26.748976826  # Fe
  18478    1     -9.761477820     2.549815604   -28.767766686  # Fe
  18479    1    -10.927026690     4.174270080   -26.748976826  # Fe
  18480    1     -8.595928951     5.852859272   -26.748976826  # Fe
  18481    1     -7.430380082     1.754911407   -28.767766686  # Fe
  18482    1     -5.099282343     3.433676472   -28.767766686  # Fe
  18483    1     -6.264831213     5.060515182   -26.748976826  # Fe
  18484    1     -2.768184605     5.113297465   -28.767766686  # Fe
  18485    1     -3.933733474     1.796918585   -26.748976826  # Fe
  18486    1     -1.602635735     3.479163273   -26.748976826  # Fe
  18487    1     -7.430380082     4.227413935   -28.767766686  # Fe
  18488    1     -5.099282343     5.906178999   -28.767766686  # Fe
  18489    1     -6.264831213     2.588012654   -26.748976826  # Fe
  18490    1     -2.768184605     2.640794937   -28.767766686  # Fe
  18491    1     -3.933733474     4.269421113   -26.748976826  # Fe
  18492    1     -1.602635735     5.951665800   -26.748976826  # Fe
  18493    1     -0.437086866     1.848398484   -28.767766686  # Fe
  18494    1      1.894010872     3.528582527   -28.767766686  # Fe
  18495    1      0.728462003     5.161760864   -26.748976826  # Fe
  18496    1      4.225108611     5.208431442   -28.767766686  # Fe
  18497    1      3.059559742     1.899192087   -26.748976826  # Fe
  18498    1      5.390657480     3.580967072   -26.748976826  # Fe
  18499    1     -0.437086866     4.320901012   -28.767766686  # Fe
  18500    1      1.894010872     6.001085054   -28.767766686  # Fe
  18501    1      0.728462003     2.689258336   -26.748976826  # Fe
  18502    1      4.225108611     2.735928914   -28.767766686  # Fe
  18503    1      3.059559742     4.371694615   -26.748976826  # Fe
  18504    1      5.390657480     6.053469599   -26.748976826  # Fe
  18505    1      6.556206350     1.942552491   -28.767766686  # Fe
  18506    1      8.887304088     3.620620260   -28.767766686  # Fe
  18507    1      7.721755219     5.261637123   -26.748976826  # Fe
  18508    1     11.218401827     5.297364184   -28.767766686  # Fe
  18509    1     10.052852957     1.995840590   -26.748976826  # Fe
  18510    1     12.383950696     3.673332991   -26.748976826  # Fe
  18511    1      6.556206350     4.415055019   -28.767766686  # Fe
  18512    1      8.887304088     6.093122787   -28.767766686  # Fe
  18513    1      7.721755219     2.789134595   -26.748976826  # Fe
  18514    1     11.218401827     2.824861656   -28.767766686  # Fe
  18515    1     10.052852957     4.468343118   -26.748976826  # Fe
  18516    1     12.383950696     6.145835518   -26.748976826  # Fe
  18517    1     13.549499565     2.027591091   -28.767766686  # Fe
  18518    1     15.880597304     3.701198255   -28.767766686  # Fe
  18519    1     14.715048434     5.348956398   -26.748976826  # Fe
  18520    1     18.211695042     5.373134148   -28.767766686  # Fe
  18521    1     17.046146173     2.077643003   -26.748976826  # Fe
  18522    1     19.377243912     3.749412528   -26.748976826  # Fe
  18523    1     13.549499565     4.500093619   -28.767766686  # Fe
  18524    1     15.880597304     6.173700782   -28.767766686  # Fe
  18525    1     14.715048434     2.876453870   -26.748976826  # Fe
  18526    1     18.211695042     2.900631620   -28.767766686  # Fe
  18527    1     17.046146173     4.550145531   -26.748976826  # Fe
  18528    1     19.377243912     6.221915055   -26.748976826  # Fe
  18529    1     20.542792781     2.098401048   -28.767766686  # Fe
  18530    1     22.873890519     3.767056701   -28.767766686  # Fe
  18531    1     21.708341650     5.419322569   -26.748976826  # Fe
  18532    1     25.204988258     5.434171444   -28.767766686  # Fe
  18533    1     24.039439389     2.142465968   -26.748976826  # Fe
  18534    1     26.370537127     3.808971280   -26.748976826  # Fe
  18535    1     20.542792781     4.570903576   -28.767766686  # Fe
  18536    1     22.873890519     6.239559228   -28.767766686  # Fe
  18537    1     21.708341650     2.946820041   -26.748976826  # Fe
  18538    1     25.204988258     2.961668916   -28.767766686  # Fe
  18539    1     24.039439389     4.614968496   -26.748976826  # Fe
  18540    1     26.370537127     6.281473807   -26.748976826  # Fe
  18541    3     27.536085996     2.154832789   -28.767766686  # 
  18542    3     29.867183735     3.819152271   -28.767766686  # 
  18543    3     28.701634866     5.473961260   -26.748976826  # 
  18545    3     31.032732604     2.192560112   -26.748976826  # 
  18547    3     27.536085996     4.627335317   -28.767766686  # 
  18548    3     29.867183735     6.291654798   -28.767766686  # 
  18549    3     28.701634866     3.001458732   -26.748976826  # 
  18551    3     31.032732604     4.665062640   -26.748976826  # 
  18986    3    -33.072455206     3.137245736   -24.730186965  # 
  18987    3    -34.238004075     4.763398774   -22.711397105  # 
  18988    3    -30.741357467     4.799507056   -24.730186965  # 
  18989    3    -31.906906337     1.479678283   -22.711397105  # 
  18990    1    -29.575808598     3.142281616   -22.711397105  # Fe
  18992    3    -33.072455206     5.609748263   -24.730186965  # 
  18993    3    -34.238004075     2.290896246   -22.711397105  # 
  18994    3    -30.741357467     2.327004528   -24.730186965  # 
  18995    3    -31.906906337     3.952180811   -22.711397105  # 
  18996    1    -29.575808598     5.614784143   -22.711397105  # Fe
  18997    1    -28.410259729     1.518106149   -24.730186965  # Fe
  18998    1    -26.079161990     3.183203922   -24.730186965  # Fe
  18999    1    -27.244710859     4.806372116   -22.711397105  # Fe
  19000    1    -23.748064252     4.849955165   -24.730186965  # Fe
  19001    1    -24.913613121     1.527130774   -22.711397105  # Fe
  19002    1    -22.582515382     3.194768797   -22.711397105  # Fe
  19003    1    -28.410259729     3.990608677   -24.730186965  # Fe
  19004    1    -26.079161990     5.655706449   -24.730186965  # Fe
  19005    1    -27.244710859     2.333869588   -22.711397105  # Fe
  19006    1    -23.748064252     2.377452637   -24.730186965  # Fe
  19007    1    -24.913613121     3.999633302   -22.711397105  # Fe
  19008    1    -22.582515382     5.667271324   -22.711397105  # Fe
  19009    1    -21.416966513     1.573518520   -24.730186965  # Fe
  19010    1    -19.085868775     3.244062941   -24.730186965  # Fe
  19011    1    -20.251417644     4.864491313   -22.711397105  # Fe
  19012    1    -16.754771036     4.916724075   -24.730186965  # Fe
  19013    1    -17.920319905     1.591501527   -22.711397105  # Fe
  19014    1    -15.589222167     3.265997885   -22.711397105  # Fe
  19015    1    -21.416966513     4.046021048   -24.730186965  # Fe
  19016    1    -19.085868775     5.716565468   -24.730186965  # Fe
  19017    1    -20.251417644     2.391988785   -22.711397105  # Fe
  19018    1    -16.754771036     2.444221547   -24.730186965  # Fe
  19019    1    -17.920319905     4.064004055   -22.711397105  # Fe
  19020    1    -15.589222167     5.738500412   -22.711397105  # Fe
  19021    1    -14.423673297     1.646600718   -24.730186965  # Fe
  19022    1    -12.092575559     3.323745817   -24.730186965  # Fe
  19023    1    -13.258124428     4.943117026   -22.711397105  # Fe
  19024    1     -9.761477820     5.003108180   -24.730186965  # Fe
  19025    1    -10.927026690     1.677913125   -22.711397105  # Fe
  19026    1     -8.595928951     3.360330678   -22.711397105  # Fe
  19027    1    -14.423673297     4.119103246   -24.730186965  # Fe
  19028    1    -12.092575559     5.796248344   -24.730186965  # Fe
  19029    1    -13.258124428     2.470614498   -22.711397105  # Fe
  19030    1     -9.761477820     2.530605652   -24.730186965  # Fe
  19031    1    -10.927026690     4.150415653   -22.711397105  # Fe
  19032    1     -8.595928951     5.832833205   -22.711397105  # Fe
  19033    1     -7.430380082     1.739520138   -24.730186965  # Fe
  19034    1     -5.099282343     3.422692724   -24.730186965  # Fe
  19035    1     -6.264831213     5.045132699   -22.711397105  # Fe
  19036    1     -2.768184605     5.107181686   -24.730186965  # Fe
  19037    1     -3.933733474     1.786888280   -22.711397105  # Fe
  19038    1     -1.602635735     3.474989649   -22.711397105  # Fe
  19039    1     -7.430380082     4.212022666   -24.730186965  # Fe
  19040    1     -5.099282343     5.895195251   -24.730186965  # Fe
  19041    1     -6.264831213     2.572630171   -22.711397105  # Fe
  19042    1     -2.768184605     2.634679158   -24.730186965  # Fe
  19043    1     -3.933733474     4.259390808   -22.711397105  # Fe
  19044    1     -1.602635735     5.947492176   -22.711397105  # Fe
  19045    1     -0.437086866     1.847422608   -24.730186965  # Fe
  19046    1      1.894010872     3.532791014   -24.730186965  # Fe
  19047    1      0.728462003     5.163664357   -22.711397105  # Fe
  19048    1      4.225108611     5.217634668   -24.730186965  # Fe
  19049    1      3.059559742     1.907071375   -22.711397105  # Fe
  19050    1      5.390657480     3.594416607   -22.711397105  # Fe
  19051    1     -0.437086866     4.319925136   -24.730186965  # Fe
  19052    1      1.894010872     6.005293541   -24.730186965  # Fe
  19053    1      0.728462003     2.691161829   -22.711397105  # Fe
  19054    1      4.225108611     2.745132140   -24.730186965  # Fe
  19055    1      3.059559742     4.379573903   -22.711397105  # Fe
  19056    1      5.390657480     6.066919134   -22.711397105  # Fe
  19057    1      6.556206350     1.956354475   -24.730186965  # Fe
  19058    1      8.887304088     3.638472552   -24.730186965  # Fe
  19059    1      7.721755219     5.280013771   -22.711397105  # Fe
  19060    1     11.218401827     5.318631499   -24.730186965  # Fe
  19061    1     10.052852957     2.018357684   -22.711397105  # Fe
  19062    1     12.383950696     3.699155794   -22.711397105  # Fe
  19063    1      6.556206350     4.428857003   -24.730186965  # Fe
  19064    1      8.887304088     6.110975079   -24.730186965  # Fe
  19065    1      7.721755219     2.807511243   -22.711397105  # Fe
  19066    1     11.218401827     2.846128971   -24.730186965  # Fe
  19067    1     10.052852957     4.490860212   -22.711397105  # Fe
  19068    1     12.383950696     6.171658321   -22.711397105  # Fe
  19069    1     13.549499565     2.051614130   -24.730186965  # Fe
  19070    1     15.880597304     3.727343744   -24.730186965  # Fe
  19071    1     14.715048434     5.377279506   -22.711397105  # Fe
  19072    1     18.211695042     5.400828129   -24.730186965  # Fe
  19073    1     17.046146173     2.107741320   -22.711397105  # Fe
  19074    1     19.377243912     3.780666765   -22.711397105  # Fe
  19075    1     13.549499565     4.524116658   -24.730186965  # Fe
  19076    1     15.880597304     6.199846271   -24.730186965  # Fe
  19077    1     14.715048434     2.904776978   -22.711397105  # Fe
  19078    1     18.211695042     2.928325601   -24.730186965  # Fe
  19079    1     17.046146173     4.580243848   -22.711397105  # Fe
  19080    1     19.377243912     6.253169292   -22.711397105  # Fe
  19081    1     20.542792781     2.127146296   -24.730186965  # Fe
  19082    1     22.873890519     3.796437737   -24.730186965  # Fe
  19083    1     21.708341650     5.451225263   -22.711397105  # Fe
  19084    1     25.204988258     5.463851273   -24.730186965  # Fe
  19085    1     24.039439389     2.174615095   -22.711397105  # Fe
  19086    1     26.370537127     3.841057457   -22.711397105  # Fe
  19087    1     20.542792781     4.599648824   -24.730186965  # Fe
  19088    1     22.873890519     6.268940264   -24.730186965  # Fe
  19089    1     21.708341650     2.978722735   -22.711397105  # Fe
  19090    1     25.204988258     2.991348745   -24.730186965  # Fe
  19091    1     24.039439389     4.647117623   -22.711397105  # Fe
  19092    1     26.370537127     6.313559984   -22.711397105  # Fe
  19093    1     27.536085996     2.184544966   -24.730186965  # Fe
  19094    3     29.867183735     3.848690993   -24.730186965  # 
  19095    1     28.701634866     5.505752725   -22.711397105  # Fe
  19096    3     32.198281474     5.511438919   -24.730186965  # 
  19097    1     31.032732604     2.223887987   -22.711397105  # Fe
  19098    3     33.363830343     3.885648520   -22.711397105  # 
  19099    1     27.536085996     4.657047494   -24.730186965  # Fe
  19100    3     29.867183735     6.321193520   -24.730186965  # 
  19101    1     28.701634866     3.033250197   -22.711397105  # Fe
  19102    3     32.198281474     3.038936391   -24.730186965  # 
  19103    1     31.032732604     4.696390515   -22.711397105  # Fe
  19104    3     33.363830343     6.358151047   -22.711397105  # 
  19530    3    -36.569101814     3.070373451   -18.673817385  # 