ITEM: TIMESTEP
40
ITEM: NUMBER OF ATOMS
2346
ITEM: BOX BOUNDS ss pp ss
-4.0826385615000000e+01 4.0826373533999998e+01
-4.1208122699999999e-01 4.5329187729999996e+00
-4.1081038976000002e+01 4.1753946576000004e+01
ITEM: ATOMS id type xs ys zs
16806 3 0.314432 0.762199 0.0247612
16812 3 0.314432 0.262199 0.0247612
17354 3 0.271609 0.754525 0.0491324
17356 3 0.300158 0.0919562 0.0491324
17360 3 0.271609 0.254526 0.0491324
17362 3 0.300158 0.591956 0.0491324
16815 3 0.342981 0.0997437 0.0247612
16817 3 0.37153 0.437439 0.0247612
16821 3 0.342981 0.599743 0.0247612
16823 3 0.37153 0.93744 0.0247612
17365 3 0.328707 0.429581 0.0491324
17366 3 0.357255 0.767389 0.0491324
17368 1 0.385932 0.105387 0.0491948
17371 3 0.328707 0.929581 0.0491324
17372 3 0.357255 0.267389 0.0491324
17374 1 0.385932 0.605387 0.0491948
16818 3 0.400079 0.775268 0.0247612
16824 3 0.400079 0.275269 0.0247612
16825 3 0.414353 0.444905 0.00038994
16826 3 0.442902 0.782667 0.00038994
16827 3 0.428628 0.113206 0.0247612
16831 3 0.414353 0.944905 0.00038994
16832 3 0.442902 0.282668 0.00038994
16833 3 0.428628 0.613205 0.0247612
17377 1 0.414496 0.444598 0.049462
17378 1 0.443032 0.782204 0.0494819
17383 1 0.414496 0.944598 0.049462
17384 1 0.443032 0.282204 0.0494819
16828 3 0.471451 0.120486 0.00038994
16829 3 0.457177 0.451223 0.0247612
16830 3 0.485726 0.789291 0.0247612
16834 3 0.471451 0.620486 0.00038994
16835 3 0.457177 0.951224 0.0247612
16836 3 0.485726 0.289292 0.0247612
17380 1 0.471493 0.120067 0.0493519
17386 1 0.471493 0.620067 0.0493519
17389 1 0.5 0.458334 0.0493377
17894 3 0.185962 0.739069 0.0978748
17895 3 0.171687 0.0682042 0.122246
17900 3 0.185962 0.239069 0.0978748
17901 3 0.171687 0.568204 0.122246
17346 3 0.228785 0.746767 0.0735036
17352 3 0.228785 0.246767 0.0735036
17355 3 0.257334 0.0839998 0.0735036
17361 3 0.257334 0.583999 0.0735036
17896 3 0.214511 0.0760301 0.0978748
17897 3 0.200236 0.405091 0.122246
17898 1 0.228988 0.742956 0.122463
17902 3 0.214511 0.57603 0.0978748
17903 3 0.200236 0.905092 0.122246
17904 1 0.228988 0.242956 0.122463
17905 3 0.24306 0.41324 0.0978748
17907 1 0.257543 0.0805312 0.122559
17911 3 0.24306 0.913241 0.0978748
17913 1 0.257543 0.580531 0.122559
17357 3 0.285883 0.421461 0.0735036
17358 1 0.314515 0.759884 0.0738051
17363 3 0.285883 0.921461 0.0735036
17364 1 0.314515 0.259884 0.0738051
17906 1 0.271744 0.751629 0.0981131
17908 1 0.300327 0.089291 0.0982256
17909 1 0.286029 0.418218 0.122502
17910 1 0.314571 0.756337 0.122504
17912 1 0.271744 0.251629 0.0981131
17914 1 0.300327 0.589291 0.0982256
17915 1 0.286029 0.918218 0.122502
17916 1 0.314571 0.256337 0.122504
17367 1 0.343118 0.0975457 0.0738341
17369 1 0.371645 0.435509 0.0736626
17373 1 0.343118 0.597546 0.0738341
17375 1 0.371645 0.935509 0.0736626
17917 1 0.32884 0.427142 0.0981382
17918 1 0.357388 0.765386 0.0980699
17919 1 0.343107 0.0945503 0.122464
17920 1 0.385896 0.103627 0.0980567
17921 1 0.37163 0.433018 0.122439
17923 1 0.32884 0.927142 0.0981382
17924 1 0.357388 0.265386 0.0980699
17925 1 0.343107 0.59455 0.122464
17926 1 0.385896 0.603627 0.0980567
17927 1 0.37163 0.933018 0.122439
17370 1 0.400201 0.774156 0.0737615
17376 1 0.400201 0.274156 0.0737615
17379 1 0.428739 0.112703 0.0738001
17385 1 0.428739 0.612703 0.0738001
17922 1 0.40015 0.771706 0.122453
17928 1 0.40015 0.271706 0.122453
17929 1 0.414436 0.442381 0.0981224
17930 1 0.442978 0.781132 0.0981392
17931 1 0.428688 0.110735 0.122483
17935 1 0.414436 0.942381 0.0981224
17936 1 0.442978 0.281132 0.0981392
17937 1 0.428688 0.610735 0.122483
17381 1 0.457259 0.45096 0.073752
17382 1 0.485752 0.789151 0.0737007
17387 1 0.457259 0.95096 0.073752
17388 1 0.485752 0.289151 0.0737007
17932 1 0.471497 0.119764 0.0981138
17933 1 0.457221 0.449815 0.122489
17934 1 0.485743 0.788837 0.122483
17938 1 0.471497 0.619764 0.0981138
17939 1 0.457221 0.949815 0.122489
17940 1 0.485743 0.288837 0.122483
17947 1 0.5 0.958334 0.0980972
18436 3 0.128864 0.0606629 0.146617
18437 3 0.11459 0.389641 0.170988
18442 3 0.128864 0.560662 0.146617
18443 3 0.11459 0.889641 0.170988
18438 3 0.143139 0.726015 0.170988
18444 3 0.143139 0.226015 0.170988
18445 3 0.157413 0.397179 0.146617
18446 3 0.185962 0.733964 0.146617
18447 1 0.171901 0.0636885 0.171204
18451 3 0.157413 0.89718 0.146617
18452 3 0.185962 0.233964 0.146617
18453 1 0.171901 0.563689 0.171204
18448 1 0.214677 0.0716253 0.146873
18449 1 0.20037 0.400162 0.171161
18450 1 0.228888 0.737547 0.171161
18454 1 0.214677 0.571625 0.146873
18455 1 0.20037 0.900162 0.171161
18456 1 0.228888 0.237547 0.171161
18457 1 0.243192 0.409157 0.146837
18459 1 0.257433 0.075205 0.171171
18463 1 0.243192 0.909157 0.146837
18465 1 0.257433 0.575205 0.171171
18458 1 0.271743 0.746992 0.146851
18460 1 0.300278 0.0849399 0.146839
18461 1 0.285977 0.413244 0.171173
18462 1 0.314518 0.751562 0.171166
18464 1 0.271743 0.246992 0.146851
18466 1 0.300278 0.58494 0.146839
18467 1 0.285977 0.913244 0.171173
18468 1 0.314518 0.251562 0.171166
18469 1 0.328818 0.423311 0.146824
18470 1 0.35735 0.761876 0.146807
18471 1 0.343059 0.0902465 0.171164
18472 1 0.385876 0.100718 0.14681
18473 1 0.371594 0.429262 0.171167
18475 1 0.328818 0.923311 0.146824
18476 1 0.35735 0.261876 0.146807
18477 1 0.343059 0.590246 0.171164
18478 1 0.385876 0.600718 0.14681
18479 1 0.371594 0.929262 0.171167
18474 1 0.400127 0.768632 0.171182
18480 1 0.400127 0.268632 0.171182
18481 1 0.414406 0.439891 0.146831
18482 1 0.442942 0.779319 0.14685
18483 1 0.428662 0.108337 0.171202
18487 1 0.414406 0.939891 0.146831
18488 1 0.442942 0.279319 0.14685
18489 1 0.428662 0.608337 0.171202
18484 1 0.471474 0.118828 0.146857
18485 1 0.457199 0.448269 0.171218
18486 1 0.485733 0.788304 0.171226
18490 1 0.471474 0.618828 0.146857
18491 1 0.457199 0.948269 0.171218
18492 1 0.485733 0.288304 0.171226
18499 1 0.5 0.958334 0.146858
18986 3 0.100315 0.718529 0.19536
18987 3 0.0860407 0.0473531 0.219731
18988 3 0.128864 0.0547325 0.19536
18989 3 0.11459 0.383359 0.219731
18992 3 0.100315 0.21853 0.19536
18993 3 0.0860407 0.547353 0.219731
18994 3 0.128864 0.554732 0.19536
18995 3 0.11459 0.883359 0.219731
19537 3 0.0717663 0.376139 0.244102
19538 3 0.100315 0.711927 0.244102
19540 1 0.129 0.0480472 0.24419
19543 3 0.0717663 0.876139 0.244102
19544 3 0.100315 0.211927 0.244102
19546 1 0.129 0.548047 0.24419
18990 1 0.143281 0.719761 0.219851
18996 1 0.143281 0.219761 0.219851
18997 1 0.157637 0.391648 0.195603
18998 1 0.186112 0.728664 0.195532
18999 1 0.171793 0.0567284 0.219866
19003 1 0.157637 0.891648 0.195603
19004 1 0.186112 0.228664 0.195532
19005 1 0.171793 0.556728 0.219866
19549 1 0.157481 0.384551 0.244175
19550 1 0.186018 0.721474 0.244185
19555 1 0.157481 0.884551 0.244175
19556 1 0.186018 0.221474 0.244185
19000 1 0.214613 0.0656634 0.195498
19001 1 0.200325 0.393708 0.219854
19002 1 0.228842 0.73098 0.219832
19006 1 0.214613 0.565663 0.195498
19007 1 0.200325 0.893708 0.219854
19008 1 0.228842 0.23098 0.219832
19009 1 0.243136 0.40319 0.195495
19011 1 0.257373 0.0686833 0.219828
19015 1 0.243136 0.90319 0.195495
19017 1 0.257373 0.568683 0.219828
19552 1 0.214544 0.0585941 0.244173
19558 1 0.214544 0.558594 0.244173
19561 1 0.243074 0.396066 0.244164
19567 1 0.243074 0.896066 0.244164
19010 1 0.271672 0.741098 0.195497
19012 1 0.300216 0.0794067 0.195501
19013 1 0.285911 0.406869 0.219831
19014 1 0.314453 0.745544 0.219836
19016 1 0.271672 0.241098 0.195497
19018 1 0.300216 0.579407 0.195501
19019 1 0.285911 0.906869 0.219831
19020 1 0.314453 0.245544 0.219836
19562 1 0.271607 0.734029 0.244161
19564 1 0.300146 0.0725397 0.244164
19568 1 0.271607 0.234029 0.244161
19570 1 0.300146 0.57254 0.244164
19021 1 0.328759 0.418129 0.195504
19022 1 0.3573 0.757272 0.195512
19023 1 0.342998 0.0847234 0.219846
19024 1 0.38584 0.0968321 0.195527
19025 1 0.371543 0.424417 0.219863
19027 1 0.328759 0.918129 0.195504
19028 1 0.3573 0.257272 0.195512
19029 1 0.342998 0.584723 0.219846
19030 1 0.38584 0.596832 0.195527
19031 1 0.371543 0.924417 0.219863
19573 1 0.32869 0.41164 0.244173
19574 1 0.357237 0.751359 0.24419
19576 1 0.385788 0.0917192 0.244215
19579 1 0.32869 0.91164 0.244173
19580 1 0.357237 0.251359 0.24419
19582 1 0.385788 0.591719 0.244215
19026 1 0.400089 0.764625 0.219887
19032 1 0.400089 0.264625 0.219887
19033 1 0.414379 0.436805 0.195549
19034 1 0.44292 0.777126 0.19557
19035 1 0.428635 0.105306 0.219913
19039 1 0.414379 0.936805 0.195549
19040 1 0.44292 0.277126 0.19557
19041 1 0.428635 0.605306 0.219913
19585 1 0.41434 0.432701 0.244246
19586 1 0.442894 0.774236 0.244276
19591 1 0.41434 0.932702 0.244246
19592 1 0.442894 0.274236 0.244276
19036 1 0.471461 0.117678 0.195585
19037 1 0.457182 0.446365 0.219935
19038 1 0.485727 0.787654 0.219948
19042 1 0.471461 0.617678 0.195585
19043 1 0.457182 0.946365 0.219935
19044 1 0.485727 0.287654 0.219948
19588 1 0.471447 0.116179 0.244298
19594 1 0.471447 0.616179 0.244298
19051 1 0.5 0.958334 0.19559
19603 1 0.5 0.958334 0.244306
19530 3 0.0574918 0.704918 0.268473
19536 3 0.0574918 0.204919 0.268473
20080 3 0.0432173 0.03372 0.292845
20086 3 0.0432173 0.533719 0.292845
19539 3 0.0860407 0.0404688 0.268473
19541 1 0.114728 0.376355 0.268547
19545 3 0.0860407 0.540468 0.268473
19547 1 0.114728 0.876355 0.268547
20089 3 0.0717663 0.369018 0.292845
20090 1 0.100464 0.704656 0.292907
20092 1 0.128936 0.0405106 0.292864
20095 3 0.0717663 0.869019 0.292845
20096 1 0.100464 0.204656 0.292907
20098 1 0.128936 0.540511 0.292864
19542 1 0.1432 0.71252 0.268513
19548 1 0.1432 0.21252 0.268513
19551 1 0.171723 0.0490739 0.268513
19557 1 0.171723 0.549074 0.268513
20101 1 0.15745 0.3767 0.292856
20102 1 0.185964 0.713277 0.292849
20107 1 0.15745 0.8767 0.292856
20108 1 0.185964 0.213277 0.292849
19553 1 0.200247 0.385991 0.26851
19554 1 0.228775 0.723245 0.268502
19559 1 0.200247 0.885991 0.26851
19560 1 0.228775 0.223245 0.268502
19563 1 0.257304 0.0609412 0.268495
19569 1 0.257304 0.560941 0.268495
20119 1 0.243007 0.887631 0.292833
20113 1 0.243007 0.387631 0.292833
20104 1 0.214485 0.0502406 0.292842
20110 1 0.214485 0.550241 0.292842
19565 1 0.285838 0.39919 0.268493
19566 1 0.314378 0.738076 0.268497
19571 1 0.285838 0.89919 0.268493
19572 1 0.314378 0.238076 0.268497
20122 1 0.300065 0.564109 0.292823
20120 1 0.271533 0.225549 0.292826
20116 1 0.300065 0.0641088 0.292823
20114 1 0.271533 0.725549 0.292826
20134 1 0.385714 0.584774 0.292877
20132 1 0.357156 0.243609 0.292847
20131 1 0.328606 0.903423 0.29283
20128 1 0.385714 0.0847736 0.292877
20126 1 0.357156 0.743608 0.292847
20125 1 0.328606 0.403422 0.29283
19575 1 0.342924 0.0776714 0.26851
19577 1 0.371476 0.418041 0.268534
19581 1 0.342924 0.577671 0.26851
19583 1 0.371476 0.918041 0.268534
20144 1 0.442852 0.270101 0.292959
20143 1 0.41428 0.926955 0.292917
20138 1 0.442852 0.7701 0.292959
20137 1 0.41428 0.426955 0.292917
19578 1 0.400033 0.75921 0.268567
19584 1 0.400033 0.25921 0.268567
19587 1 0.428594 0.101146 0.268603
19593 1 0.428594 0.601146 0.268603
20146 1 0.471426 0.614005 0.292991
20140 1 0.471426 0.114005 0.292991
19589 1 0.457157 0.443731 0.268636
19590 1 0.485719 0.786748 0.268655
19595 1 0.457157 0.943731 0.268636
19596 1 0.485719 0.286748 0.268655
20155 1 0.5 0.958334 0.293003
20640 1 0.0578068 0.189188 0.365999
20639 3 0.0289429 0.855054 0.365958
20638 3 0.0432173 0.52628 0.341587
20636 3 0.0146684 0.191503 0.341587
20634 1 0.0578068 0.689188 0.365999
20633 3 0.0289429 0.355053 0.365958
20632 3 0.0432173 0.0262808 0.341587
20630 3 0.0146684 0.691502 0.341587
20081 3 0.0289429 0.362572 0.317216
20082 3 0.0574918 0.697612 0.317216
20087 3 0.0289429 0.862572 0.317216
20088 3 0.0574918 0.197613 0.317216
20651 1 0.114745 0.859608 0.365953
20650 1 0.12897 0.531886 0.341575
20649 1 0.0862795 0.524373 0.365977
20648 1 0.100494 0.196294 0.341591
20647 1 0.0721008 0.861093 0.341638
20645 1 0.114745 0.359608 0.365953
20644 1 0.12897 0.031886 0.341575
20643 1 0.0862795 0.0243731 0.365977
20642 1 0.100494 0.696294 0.341591
20641 1 0.0721008 0.361093 0.341638
20091 1 0.0862212 0.0329444 0.317266
20093 1 0.114693 0.368473 0.317222
20097 1 0.0862212 0.532944 0.317266
20099 1 0.114693 0.868473 0.317222
20661 1 0.171703 0.530955 0.365915
20660 1 0.185949 0.204026 0.341547
20659 1 0.157453 0.86779 0.341559
20655 1 0.171703 0.0309554 0.365915
20654 1 0.185949 0.704026 0.341547
20653 1 0.157453 0.36779 0.341559
20652 1 0.143216 0.195119 0.365932
20646 1 0.143216 0.695119 0.365932
20094 1 0.143197 0.704316 0.31721
20100 1 0.143197 0.204316 0.31721
20103 1 0.171699 0.0405375 0.317198
20109 1 0.171699 0.540537 0.317198
20673 1 0.257188 0.540779 0.365859
20671 1 0.242955 0.877719 0.341517
20667 1 0.257188 0.0407792 0.365859
20665 1 0.242955 0.377719 0.341517
20664 1 0.228689 0.203704 0.365878
20663 1 0.200194 0.86713 0.365897
20662 1 0.21445 0.540643 0.341533
20658 1 0.228689 0.703704 0.365878
20657 1 0.200194 0.36713 0.365897
20656 1 0.21445 0.040643 0.341533
20121 1 0.257237 0.551699 0.317166
20115 1 0.257237 0.0516986 0.317166
20105 1 0.200209 0.377142 0.317189
20106 1 0.228721 0.714169 0.317178
20111 1 0.200209 0.877142 0.317189
20112 1 0.228721 0.214169 0.317178
20676 1 0.314202 0.216993 0.365823
20675 1 0.285691 0.878483 0.365839
20674 1 0.299983 0.553698 0.341489
20672 1 0.271465 0.215361 0.341502
20670 1 0.314202 0.716993 0.365823
20669 1 0.285691 0.378483 0.365839
20668 1 0.299983 0.0536976 0.341489
20666 1 0.271465 0.715361 0.341502
20124 1 0.31429 0.228723 0.317154
20123 1 0.285759 0.889837 0.317157
20118 1 0.31429 0.728723 0.317154
20117 1 0.285759 0.389837 0.317157
20687 1 0.371264 0.897547 0.365816
20686 1 0.385609 0.575034 0.341513
20685 1 0.342724 0.556572 0.365813
20684 1 0.35705 0.233276 0.341491
20683 1 0.328509 0.892923 0.341484
20681 1 0.371264 0.397547 0.365816
20680 1 0.385609 0.0750342 0.341513
20679 1 0.342724 0.0565718 0.365813
20678 1 0.35705 0.733276 0.341491
20677 1 0.328509 0.392923 0.341484
20135 1 0.371384 0.909417 0.317182
20133 1 0.342831 0.56852 0.317161
20129 1 0.371384 0.409418 0.317182
20127 1 0.342831 0.0685197 0.317161
20697 1 0.428422 0.585482 0.365882
20696 1 0.442782 0.263692 0.341606
20695 1 0.414187 0.918463 0.341554
20691 1 0.428422 0.085483 0.365882
20690 1 0.442782 0.763691 0.341606
20689 1 0.414187 0.418463 0.341554
20688 1 0.399828 0.240358 0.365838
20682 1 0.399828 0.740359 0.365838
20145 1 0.428529 0.59506 0.317264
20139 1 0.428529 0.0950598 0.317264
20136 1 0.399951 0.251574 0.317218
20130 1 0.399951 0.751574 0.317218
20700 1 0.485679 0.283004 0.365982
20699 1 0.457043 0.93318 0.365941
20698 1 0.471389 0.610526 0.341652
20694 1 0.485679 0.783005 0.365982
20693 1 0.457043 0.433181 0.365941
20692 1 0.471389 0.110526 0.341652
20148 1 0.485705 0.285372 0.317338
20147 1 0.457115 0.939774 0.317309
20142 1 0.485705 0.785372 0.317338
20141 1 0.457115 0.439774 0.317309
20707 1 0.5 0.958334 0.341671
21742 1 0.0435053 0.509522 0.439127
21740 3 0.0146684 0.176082 0.439072
21736 1 0.0435053 0.00952197 0.439127
21734 3 0.0146684 0.676082 0.439072
21192 1 0.0577962 0.18121 0.414688
21191 3 0.0289429 0.847117 0.414701
21190 1 0.0432605 0.519387 0.390258
21189 3 0.000393975 0.51301 0.414701
21188 3 0.0146684 0.183957 0.390329
21186 1 0.0577962 0.68121 0.414688
21185 3 0.0289429 0.347116 0.414701
21184 1 0.0432605 0.019387 0.390258
21183 3 0.000393975 0.0130103 0.414701
21182 3 0.0146684 0.683956 0.390329
21754 1 0.128995 0.512569 0.439039
21752 1 0.100508 0.178006 0.439048
21751 1 0.0720139 0.843669 0.439058
21748 1 0.128995 0.0125693 0.439039
21746 1 0.100508 0.678006 0.439048
21745 1 0.0720139 0.343669 0.439058
21203 1 0.114734 0.850253 0.41468
21202 1 0.128975 0.522625 0.390309
21201 1 0.0862362 0.515557 0.414683
21200 1 0.100489 0.187577 0.390328
21199 1 0.0719977 0.85289 0.390331
21197 1 0.114734 0.350253 0.41468
21196 1 0.128975 0.0226249 0.390309
21195 1 0.0862362 0.0155575 0.414683
21194 1 0.100489 0.687577 0.390328
21193 1 0.0719977 0.35289 0.390331
21764 1 0.185978 0.182297 0.439007
21763 1 0.157488 0.847338 0.439025
21758 1 0.185978 0.682297 0.439007
21757 1 0.157488 0.347338 0.439025
21213 1 0.171716 0.520429 0.414647
21212 1 0.185951 0.193702 0.39027
21211 1 0.157463 0.858014 0.39029
21207 1 0.171716 0.0204294 0.414647
21206 1 0.185951 0.693702 0.39027
21205 1 0.157463 0.358014 0.39029
21204 1 0.143226 0.18522 0.414666
21198 1 0.143226 0.68522 0.414666
21775 1 0.242949 0.853002 0.438964
21769 1 0.242949 0.353002 0.438964
21766 1 0.214465 0.517497 0.438987
21760 1 0.214465 0.0174975 0.438987
21225 1 0.257175 0.528011 0.414581
21223 1 0.24293 0.866211 0.390227
21219 1 0.257175 0.0280109 0.414581
21217 1 0.24293 0.366211 0.390227
21216 1 0.22869 0.191754 0.414605
21215 1 0.200204 0.85592 0.414627
21214 1 0.21444 0.529747 0.39025
21210 1 0.22869 0.691754 0.414605
21209 1 0.200204 0.35592 0.414627
21208 1 0.21444 0.0297473 0.39025
21778 1 0.299911 0.525395 0.43891
21776 1 0.271431 0.188914 0.438939
21772 1 0.299911 0.0253944 0.43891
21770 1 0.271431 0.688914 0.438939
21228 1 0.314147 0.202411 0.414525
21227 1 0.28566 0.864835 0.414554
21226 1 0.299917 0.54091 0.39018
21224 1 0.271421 0.203215 0.390204
21222 1 0.314147 0.702411 0.414525
21221 1 0.28566 0.364835 0.414554
21220 1 0.299917 0.04091 0.39018
21218 1 0.271421 0.703214 0.390204
21790 1 0.385346 0.541204 0.438804
21788 1 0.356864 0.201068 0.438842
21787 1 0.328387 0.862654 0.438878
21784 1 0.385346 0.0412032 0.438804
21782 1 0.356864 0.701067 0.438842
21781 1 0.328387 0.362653 0.438878
21239 1 0.37114 0.88117 0.41447
21238 1 0.38547 0.561088 0.390137
21237 1 0.342638 0.541042 0.414496
21236 1 0.356934 0.21944 0.390141
21235 1 0.328419 0.879539 0.390158
21233 1 0.37114 0.381171 0.41447
21232 1 0.38547 0.0610873 0.390137
21231 1 0.342638 0.0410426 0.414496
21230 1 0.356934 0.71944 0.390141
21229 1 0.328419 0.379539 0.390158
21800 1 0.442399 0.231941 0.438719
21799 1 0.413846 0.884047 0.438763
21794 1 0.442399 0.73194 0.438719
21793 1 0.413846 0.384046 0.438763
21249 1 0.428235 0.569254 0.414451
21248 1 0.442655 0.252737 0.390199
21247 1 0.414039 0.905202 0.390153
21243 1 0.428234 0.0692554 0.414451
21242 1 0.442655 0.752736 0.390199
21241 1 0.414039 0.405202 0.390153
21240 1 0.399665 0.223493 0.414452
21234 1 0.399665 0.723494 0.414452
21802 1 0.471119 0.589707 0.43876
21796 1 0.471119 0.089705 0.43876
21252 1 0.485622 0.27814 0.414564
21251 1 0.456885 0.920525 0.414495
21250 1 0.471317 0.604197 0.390263
21246 1 0.485622 0.778142 0.414564
21245 1 0.456885 0.420526 0.414495
21244 1 0.471317 0.104196 0.390263
21811 1 0.5 0.958335 0.438848
21259 1 0.5 0.958334 0.390291
21744 1 0.0578622 0.172014 0.463457
21743 3 0.0289429 0.838894 0.463443
21741 3 0.000393975 0.505243 0.463443
21738 1 0.0578622 0.672014 0.463457
21737 3 0.0289429 0.338893 0.463443
21735 3 0.000393975 0.00524368 0.463443
22286 3 0.0146684 0.668018 0.487814
22288 1 0.0434888 0.000665774 0.487811
22292 3 0.0146684 0.168019 0.487814
22294 1 0.0434888 0.500666 0.487811
21755 1 0.114775 0.840133 0.463413
21753 1 0.086295 0.505926 0.463427
21749 1 0.114775 0.340133 0.463413
21747 1 0.086295 0.00592586 0.463427
22297 1 0.0720456 0.334366 0.487806
22298 1 0.100551 0.668112 0.487789
22300 1 0.129042 0.00198745 0.487777
22303 1 0.0720456 0.834366 0.487806
22304 1 0.100551 0.168112 0.487789
22306 1 0.129042 0.501987 0.487777
21765 1 0.171758 0.508949 0.463387
21759 1 0.171758 0.0089494 0.463387
21756 1 0.143266 0.174493 0.463401
21750 1 0.143266 0.674493 0.463401
22309 1 0.157539 0.335966 0.487765
22310 1 0.186035 0.669992 0.48775
22315 1 0.157539 0.835966 0.487765
22316 1 0.186035 0.169992 0.48775
21777 1 0.257222 0.513329 0.463327
21771 1 0.257222 0.013329 0.463327
21768 1 0.228737 0.178316 0.463349
21767 1 0.200248 0.843541 0.463369
21762 1 0.228737 0.678316 0.463349
21761 1 0.200248 0.343541 0.463369
22312 1 0.21453 0.00408062 0.487734
22318 1 0.21453 0.504081 0.487734
22321 1 0.243023 0.338262 0.487715
22327 1 0.243023 0.838262 0.487715
21780 1 0.31418 0.18456 0.463274
21779 1 0.285704 0.848696 0.463302
21774 1 0.31418 0.684561 0.463274
21773 1 0.285704 0.348696 0.463302
22322 1 0.271513 0.67257 0.487694
22324 1 0.3 0.0070858 0.487672
22328 1 0.271513 0.17257 0.487694
22330 1 0.3 0.507086 0.487672
21791 1 0.371109 0.858915 0.463203
21789 1 0.342649 0.521155 0.463242
21785 1 0.371109 0.358916 0.463203
21783 1 0.342649 0.0211558 0.463242
22333 1 0.328479 0.341899 0.487649
22334 1 0.356947 0.677213 0.487623
22336 1 0.385393 0.013333 0.487591
22339 1 0.328479 0.8419 0.487649
22340 1 0.356947 0.177213 0.487623
22342 1 0.385393 0.513334 0.487591
21801 1 0.428008 0.541374 0.463082
21795 1 0.428008 0.0413753 0.463082
21792 1 0.39956 0.198537 0.463153
21786 1 0.39956 0.698539 0.463153
22345 1 0.413798 0.350813 0.487548
22346 1 0.442163 0.690926 0.487483
22351 1 0.413798 0.850813 0.487548
22352 1 0.442163 0.190928 0.487483
21804 1 0.485421 0.262644 0.463039
21803 1 0.456525 0.891977 0.462964
21798 1 0.485421 0.762646 0.463039
21797 1 0.456525 0.391979 0.462964
22348 1 0.470617 0.041499 0.487329
22354 1 0.470617 0.5415 0.487329
22363 1 0.5 0.958334 0.48738
22287 3 0.000393975 0.997376 0.512186
22289 3 0.0289429 0.33055 0.512186
22290 1 0.0578641 0.662958 0.512171
22293 3 0.000393975 0.497376 0.512186
22295 3 0.0289429 0.83055 0.512186
22296 1 0.0578641 0.162958 0.512171
22838 3 0.0146684 0.659927 0.536557
22839 3 0.000393975 0.989559 0.560928
22840 1 0.0434959 0.992009 0.536538
22841 3 0.0289429 0.322267 0.560928
22842 1 0.0578866 0.654222 0.560873
22844 3 0.0146684 0.159927 0.536557
22845 3 0.000393975 0.489559 0.560928
22846 1 0.0434959 0.492009 0.536538
22847 3 0.0289429 0.822268 0.560928
22848 1 0.0578866 0.154222 0.560873
22299 1 0.0863222 0.996352 0.51216
22301 1 0.114818 0.329868 0.512151
22305 1 0.0863222 0.496352 0.51216
22307 1 0.114818 0.829868 0.512151
22849 1 0.072065 0.325151 0.536521
22850 1 0.100582 0.658233 0.536519
22851 1 0.0863435 0.986952 0.560882
22852 1 0.129082 0.991327 0.536515
22853 1 0.11484 0.319718 0.560886
22855 1 0.072065 0.825151 0.536521
22856 1 0.100582 0.158233 0.536519
22857 1 0.0863435 0.486952 0.560882
22858 1 0.129082 0.491327 0.536515
22859 1 0.11484 0.819718 0.560886
22302 1 0.143316 0.663412 0.512141
22308 1 0.143316 0.163412 0.512141
22311 1 0.171817 0.996926 0.512129
22317 1 0.171817 0.496926 0.512129
22854 1 0.143348 0.652423 0.560881
22860 1 0.143348 0.152423 0.560881
22861 1 0.15759 0.324396 0.536506
22862 1 0.186098 0.657366 0.536493
22863 1 0.171863 0.984968 0.560869
22867 1 0.15759 0.824396 0.536506
22868 1 0.186098 0.157366 0.536493
22869 1 0.171863 0.484968 0.560869
22313 1 0.200319 0.330409 0.512115
22314 1 0.228821 0.66385 0.512099
22319 1 0.200319 0.830409 0.512115
22320 1 0.228821 0.16385 0.512099
22323 1 0.257323 0.997241 0.512082
22329 1 0.257323 0.497241 0.512082
22864 1 0.214609 0.990191 0.536479
22865 1 0.200382 0.317304 0.560855
22866 1 0.228903 0.649358 0.560841
22870 1 0.214609 0.490191 0.536479
22871 1 0.200382 0.817304 0.560855
22872 1 0.228903 0.149358 0.560841
22873 1 0.243122 0.322828 0.536464
22875 1 0.257427 0.981048 0.560829
22879 1 0.243122 0.822828 0.536464
22881 1 0.257427 0.481048 0.560829
22325 1 0.285823 0.330565 0.512065
22326 1 0.314321 0.663814 0.512049
22331 1 0.285823 0.830565 0.512065
22332 1 0.314321 0.163814 0.512049
22874 1 0.271635 0.655211 0.53645
22876 1 0.300148 0.987242 0.536439
22877 1 0.285952 0.312232 0.56082
22878 1 0.314477 0.642707 0.560818
22880 1 0.271635 0.155211 0.53645
22882 1 0.300148 0.487242 0.536439
22883 1 0.285952 0.812232 0.56082
22884 1 0.314477 0.142707 0.560818
22335 1 0.342812 0.996947 0.512036
22337 1 0.371293 0.329863 0.512027
22341 1 0.342812 0.496947 0.512036
22343 1 0.371293 0.829863 0.512027
22885 1 0.328661 0.31876 0.536434
22886 1 0.357172 0.649434 0.536438
22887 1 0.343002 0.972113 0.560829
22888 1 0.385679 0.978597 0.53646
22889 1 0.371525 0.299808 0.56086
22891 1 0.328661 0.81876 0.536434
22892 1 0.357172 0.149435 0.536438
22893 1 0.343002 0.472113 0.560829
22894 1 0.385679 0.478597 0.53646
22895 1 0.371525 0.799809 0.56086
22338 1 0.399755 0.662245 0.512025
22344 1 0.399755 0.162245 0.512025
22347 1 0.428193 0.993224 0.512042
22353 1 0.428193 0.493223 0.512042
22890 1 0.400044 0.624657 0.560928
22896 1 0.400044 0.124657 0.560928
22897 1 0.414185 0.304822 0.536519
22898 1 0.44271 0.624804 0.536649
22899 1 0.428562 0.944636 0.561063
22903 1 0.414185 0.804823 0.536519
22904 1 0.44271 0.124803 0.536649
22905 1 0.428562 0.444636 0.561063
22349 1 0.456678 0.320436 0.51211
22350 1 0.485355 0.624955 0.512381
22355 1 0.456678 0.820436 0.51211
22356 1 0.485355 0.124955 0.512381
22900 1 0.471256 0.929302 0.536996
22901 1 0.457073 0.256372 0.561344
22902 1 0.485637 0.558792 0.561698
22906 1 0.471256 0.429304 0.536996
22907 1 0.457073 0.756372 0.561344
22908 1 0.485637 0.0587906 0.561698
22915 1 0.5 0.708332 0.537488
23390 3 0.0146684 0.651972 0.585299
23391 3 0.000393975 0.98194 0.609671
23392 1 0.0435222 0.983765 0.585203
23393 3 0.0289429 0.314218 0.609671
23394 1 0.057844 0.646061 0.609584
23396 3 0.0146684 0.151972 0.585299
23397 3 0.000393975 0.481939 0.609671
23398 1 0.0435222 0.483765 0.585203
23399 3 0.0289429 0.814219 0.609671
23400 1 0.057844 0.146061 0.609584
23401 1 0.0720664 0.316313 0.585242
23402 1 0.100579 0.648698 0.585255
23403 1 0.0862841 0.978127 0.609625
23404 1 0.129087 0.981021 0.585254
23405 1 0.114808 0.310193 0.609622
23407 1 0.0720664 0.816313 0.585242
23408 1 0.100579 0.148698 0.585255
23409 1 0.0862841 0.478127 0.609625
23410 1 0.129087 0.481021 0.585254
23411 1 0.114808 0.810193 0.609622
23406 1 0.143336 0.642091 0.609614
23412 1 0.143336 0.142091 0.609614
23413 1 0.15761 0.313219 0.585243
23414 1 0.186136 0.645171 0.585229
23415 1 0.171872 0.973735 0.6096
23419 1 0.15761 0.813219 0.585243
23420 1 0.186136 0.145171 0.585229
23421 1 0.171872 0.473735 0.6096
23416 1 0.214665 0.976796 0.585215
23417 1 0.200409 0.305046 0.609585
23418 1 0.228947 0.635928 0.609573
23422 1 0.214665 0.476796 0.585215
23423 1 0.200409 0.805046 0.609585
23424 1 0.228947 0.135928 0.609573
23425 1 0.243197 0.307998 0.585203
23427 1 0.257486 0.966238 0.609565
23431 1 0.243197 0.807998 0.585203
23433 1 0.257486 0.466238 0.609565
23426 1 0.27173 0.638637 0.585195
23428 1 0.300263 0.968503 0.585195
23429 1 0.286023 0.295796 0.609566
23430 1 0.314558 0.624356 0.609579
23432 1 0.27173 0.138637 0.585195
23434 1 0.300263 0.468503 0.585195
23435 1 0.286023 0.795796 0.609566
23436 1 0.314558 0.124356 0.609579
23437 1 0.328794 0.297291 0.585208
23438 1 0.357322 0.624495 0.585241
23439 1 0.343088 0.951552 0.609611
23440 1 0.385845 0.94934 0.585307
23441 1 0.371611 0.276874 0.609671
23443 1 0.328794 0.797292 0.585208
23444 1 0.357322 0.124495 0.585241
23445 1 0.343088 0.451552 0.609611
23446 1 0.385845 0.44934 0.585307
23447 1 0.371611 0.776874 0.609671
23442 1 0.400126 0.599694 0.60977
23448 1 0.400126 0.0996943 0.60977
23449 1 0.414361 0.270702 0.585424
23450 1 0.442868 0.587195 0.585626
23451 1 0.428635 0.919412 0.60992
23455 1 0.414361 0.770701 0.585424
23456 1 0.442868 0.0871958 0.585626
23457 1 0.428635 0.419412 0.60992
23452 1 0.471398 0.898763 0.585878
23453 1 0.457156 0.236084 0.610102
23454 1 0.485713 0.551018 0.610227
23458 1 0.471397 0.39876 0.585878
23459 1 0.457156 0.736083 0.610102
23460 1 0.485713 0.0510195 0.610227
23461 1 0.5 0.208332 0.585981
23942 3 0.0146684 0.644303 0.634042
23944 3 0.0432173 0.976318 0.634042
23945 3 0.0289429 0.306548 0.658413
23946 3 0.0574918 0.638292 0.658413
23948 3 0.0146684 0.144303 0.634042
23950 3 0.0432173 0.476317 0.634042
23951 3 0.0289429 0.806548 0.658413
23952 3 0.0574918 0.138293 0.658413
24496 3 0.0432173 0.968699 0.682784
24502 3 0.0432173 0.468699 0.682784
23953 1 0.0719735 0.308227 0.633966
23954 1 0.100496 0.639939 0.633987
23955 1 0.0862316 0.969987 0.658319
23956 1 0.129048 0.971533 0.633979
23957 1 0.114752 0.301411 0.658339
23959 1 0.0719735 0.808227 0.633966
23960 1 0.100496 0.139939 0.633987
23961 1 0.0862316 0.469987 0.658319
23962 1 0.129048 0.471533 0.633979
23963 1 0.114752 0.801411 0.658339
24505 1 0.071804 0.30024 0.682765
24506 1 0.100512 0.631587 0.682675
24508 1 0.129023 0.962695 0.682692
24511 1 0.071804 0.80024 0.682765
24512 1 0.100512 0.131587 0.682675
24514 1 0.129023 0.462695 0.682692
23958 1 0.143308 0.632606 0.658329
23964 1 0.143308 0.132606 0.658329
23965 1 0.157593 0.302912 0.633968
23966 1 0.186138 0.63399 0.633953
23967 1 0.171857 0.963528 0.658318
23971 1 0.157593 0.802912 0.633968
23972 1 0.186138 0.13399 0.633953
23973 1 0.171857 0.463528 0.658318
24517 1 0.157575 0.293535 0.68268
24518 1 0.186124 0.624041 0.682668
24523 1 0.157575 0.793535 0.68268
24524 1 0.186124 0.124041 0.682668
23968 1 0.214683 0.96467 0.63394
23969 1 0.200407 0.294083 0.658305
23970 1 0.228954 0.624159 0.658296
23974 1 0.214683 0.46467 0.63394
23975 1 0.200407 0.794083 0.658305
23976 1 0.228954 0.124159 0.658296
23977 1 0.243226 0.294814 0.633932
23979 1 0.257497 0.953612 0.658295
23983 1 0.243226 0.794814 0.633932
23985 1 0.257497 0.453612 0.658295
24520 1 0.214675 0.954115 0.682657
24526 1 0.214675 0.454115 0.682657
24529 1 0.243221 0.28364 0.682655
24535 1 0.243221 0.78364 0.682655
23978 1 0.271766 0.624257 0.633932
23980 1 0.300303 0.952803 0.633945
23981 1 0.286036 0.28227 0.658306
23982 1 0.314569 0.609951 0.658332
23984 1 0.271766 0.124257 0.633932
23986 1 0.300303 0.452803 0.633945
23987 1 0.286036 0.78227 0.658306
23988 1 0.314569 0.109951 0.658332
24530 1 0.271762 0.612478 0.682664
24532 1 0.300297 0.940483 0.682687
24536 1 0.271762 0.112478 0.682664
24538 1 0.300297 0.440483 0.682687
23989 1 0.328834 0.280202 0.633974
23990 1 0.357358 0.606125 0.634027
23991 1 0.343094 0.936454 0.658378
23992 1 0.385875 0.930207 0.63411
23993 1 0.371613 0.261559 0.658448
23995 1 0.328834 0.780202 0.633974
23996 1 0.357358 0.106125 0.634027
23997 1 0.343094 0.436454 0.658378
23998 1 0.385875 0.430206 0.63411
23999 1 0.371613 0.761559 0.658448
24541 1 0.328824 0.267518 0.682726
24542 1 0.357346 0.593455 0.682785
24544 1 0.385864 0.918212 0.682863
24547 1 0.328824 0.767518 0.682726