ITEM: TIMESTEP
38
ITEM: NUMBER OF ATOMS
2342
ITEM: BOX BOUNDS ss pp ss
-4.0826385615000000e+01 4.0826373533999998e+01
-4.1208122699999999e-01 4.5329187729999996e+00
-4.1249271465000000e+01 4.1585714086999999e+01
ITEM: ATOMS id type xs ys zs
17354 3 0.271609 0.75467 0.0491324
17356 3 0.300158 0.0920892 0.0491324
17360 3 0.271609 0.25467 0.0491324
17362 3 0.300158 0.592089 0.0491324
16815 3 0.342981 0.099845 0.0247612
16817 3 0.37153 0.437525 0.0247612
16821 3 0.342981 0.599845 0.0247612
16823 3 0.37153 0.937525 0.0247612
17365 3 0.328707 0.4297 0.0491324
17366 3 0.357255 0.767492 0.0491324
17368 1 0.385892 0.104969 0.0491662
17371 3 0.328707 0.929701 0.0491324
17372 3 0.357255 0.267493 0.0491324
17374 1 0.385892 0.604969 0.0491662
16818 3 0.400079 0.775337 0.0247612
16824 3 0.400079 0.275337 0.0247612
16825 3 0.414353 0.444959 0.00038994
16826 3 0.442902 0.782704 0.00038994
16827 3 0.428628 0.113256 0.0247612
16831 3 0.414353 0.944959 0.00038994
16832 3 0.442902 0.282704 0.00038994
16833 3 0.428628 0.613255 0.0247612
17377 1 0.414485 0.444518 0.0494606
17378 1 0.443029 0.782193 0.0494826
17383 1 0.414485 0.944518 0.0494606
17384 1 0.443029 0.282193 0.0494826
16828 3 0.471451 0.120505 0.00038994
16829 3 0.457177 0.451253 0.0247612
16830 3 0.485726 0.789301 0.0247612
16834 3 0.471451 0.620504 0.00038994
16835 3 0.457177 0.951254 0.0247612
16836 3 0.485726 0.289302 0.0247612
17380 1 0.471493 0.120066 0.0493523
17386 1 0.471493 0.620066 0.0493523
17389 1 0.5 0.458334 0.049338
17894 3 0.185962 0.739265 0.0978748
17895 3 0.171687 0.0684176 0.122246
17900 3 0.185962 0.239265 0.0978748
17901 3 0.171687 0.568417 0.122246
17346 3 0.228785 0.746939 0.0735036
17352 3 0.228785 0.246939 0.0735036
17355 3 0.257334 0.0841632 0.0735036
17361 3 0.257334 0.584163 0.0735036
17896 3 0.214511 0.0762208 0.0978748
17897 3 0.200236 0.405301 0.122246
17898 1 0.228996 0.743001 0.122465
17902 3 0.214511 0.57622 0.0978748
17903 3 0.200236 0.905302 0.122246
17904 1 0.228996 0.243001 0.122465
17905 3 0.24306 0.413423 0.0978748
17907 1 0.25754 0.0804531 0.122578
17911 3 0.24306 0.913424 0.0978748
17913 1 0.25754 0.580453 0.122578
17357 3 0.285883 0.421613 0.0735036
17358 1 0.314528 0.758728 0.0735294
17363 3 0.285883 0.921614 0.0735036
17364 1 0.314528 0.258728 0.0735294
17906 1 0.271712 0.751501 0.0981599
17908 1 0.300338 0.0889842 0.0981505
17909 1 0.286042 0.418151 0.122477
17910 1 0.31457 0.756159 0.12245
17912 1 0.271712 0.251501 0.0981599
17914 1 0.300338 0.588984 0.0981505
17915 1 0.286042 0.918151 0.122477
17916 1 0.31457 0.256159 0.12245
17367 1 0.343141 0.0980988 0.0738153
17369 1 0.371726 0.435781 0.0737977
17373 1 0.343141 0.598099 0.0738153
17375 1 0.371726 0.935781 0.0737977
17917 1 0.328856 0.426962 0.0981106
17918 1 0.357411 0.765524 0.09813
17919 1 0.343101 0.0944705 0.122463
17920 1 0.385935 0.103841 0.098118
17921 1 0.371643 0.433113 0.122482
17923 1 0.328856 0.926962 0.0981106
17924 1 0.357411 0.265524 0.09813
17925 1 0.343101 0.59447 0.122463
17926 1 0.385935 0.603841 0.098118
17927 1 0.371643 0.933113 0.122482
17370 1 0.400215 0.773986 0.073769
17376 1 0.400215 0.273986 0.073769
17379 1 0.428744 0.11261 0.0738025
17385 1 0.428744 0.61261 0.0738025
17922 1 0.400171 0.771846 0.122491
17928 1 0.400171 0.271846 0.122491
17929 1 0.414454 0.44235 0.0981405
17930 1 0.442987 0.781094 0.0981472
17931 1 0.4287 0.110773 0.122501
17935 1 0.414454 0.94235 0.0981405
17936 1 0.442987 0.281094 0.0981472
17937 1 0.4287 0.610773 0.122501
17381 1 0.45726 0.450929 0.0737538
17382 1 0.485752 0.789142 0.0737024
17387 1 0.45726 0.950929 0.0737538
17388 1 0.485752 0.289142 0.0737024
17932 1 0.4715 0.119752 0.0981191
17933 1 0.457228 0.449824 0.122501
17934 1 0.485744 0.78884 0.122492
17938 1 0.4715 0.619752 0.0981191
17939 1 0.457228 0.949824 0.122501
17940 1 0.485744 0.28884 0.122492
17941 1 0.5 0.458334 0.0981016
17947 1 0.5 0.958334 0.0981016
18437 3 0.11459 0.389886 0.170988
18443 3 0.11459 0.889886 0.170988
18438 3 0.143139 0.726262 0.170988
18444 3 0.143139 0.226263 0.170988
18445 3 0.157413 0.39741 0.146617
18446 3 0.185962 0.734193 0.146617
18447 1 0.171652 0.0625554 0.171109
18451 3 0.157413 0.89741 0.146617
18452 3 0.185962 0.234193 0.146617
18453 1 0.171652 0.562555 0.171109
18448 1 0.214716 0.0715651 0.14689
18449 1 0.200287 0.399993 0.171146
18450 1 0.228849 0.737562 0.171171
18454 1 0.214716 0.571565 0.14689
18455 1 0.200287 0.899993 0.171146
18456 1 0.228849 0.237562 0.171171
18457 1 0.243201 0.409067 0.146851
18459 1 0.25742 0.075237 0.171175
18463 1 0.243201 0.909067 0.146851
18465 1 0.25742 0.575237 0.171175
18458 1 0.271749 0.746947 0.14685
18460 1 0.300279 0.0848833 0.146817
18461 1 0.28597 0.413269 0.171164
18462 1 0.31451 0.751546 0.171155
18464 1 0.271749 0.246947 0.14685
18466 1 0.300279 0.584883 0.146817
18467 1 0.28597 0.913269 0.171164
18468 1 0.31451 0.251546 0.171155
18469 1 0.328808 0.423199 0.146808
18470 1 0.357344 0.761868 0.146819
18471 1 0.343048 0.0902153 0.171162
18472 1 0.385881 0.100829 0.146838
18473 1 0.371588 0.429297 0.17118
18475 1 0.328808 0.923199 0.146808
18476 1 0.357344 0.261868 0.146819
18477 1 0.343048 0.590215 0.171162
18478 1 0.385881 0.600829 0.146838
18479 1 0.371588 0.929297 0.17118
18474 1 0.400128 0.768722 0.171202
18480 1 0.400128 0.268722 0.171202
18481 1 0.414415 0.439999 0.146855
18482 1 0.442949 0.77938 0.146867
18483 1 0.428666 0.108425 0.17122
18487 1 0.414415 0.94 0.146855
18488 1 0.442949 0.27938 0.146867
18489 1 0.428666 0.608425 0.17122
18484 1 0.471477 0.118852 0.14687
18485 1 0.457202 0.448325 0.171233
18486 1 0.485735 0.78832 0.171238
18490 1 0.471477 0.618852 0.14687
18491 1 0.457202 0.948325 0.171233
18492 1 0.485735 0.28832 0.171238
18499 1 0.5 0.958334 0.146869
18986 3 0.100315 0.718788 0.19536
18987 3 0.0860407 0.0476241 0.219731
18988 3 0.128864 0.0549955 0.19536
18989 3 0.11459 0.383636 0.219731
18992 3 0.100315 0.218789 0.19536
18993 3 0.0860407 0.547624 0.219731
18994 3 0.128864 0.554995 0.19536
18995 3 0.11459 0.883637 0.219731
19537 3 0.0717663 0.376421 0.244102
19538 3 0.100315 0.712217 0.244102
19540 1 0.128999 0.0483231 0.244231
19543 3 0.0717663 0.876421 0.244102
19544 3 0.100315 0.212218 0.244102
19546 1 0.128999 0.548323 0.244231
18990 1 0.143348 0.720211 0.219994
18996 1 0.143348 0.220211 0.219994
18997 1 0.157601 0.392241 0.19562
18998 1 0.186075 0.728603 0.195552
18999 1 0.171824 0.0570114 0.219924
19003 1 0.157601 0.892241 0.19562
19004 1 0.186075 0.228603 0.195552
19005 1 0.171824 0.557011 0.219924
19549 1 0.157509 0.385023 0.244251
19550 1 0.186041 0.721754 0.244227
19555 1 0.157509 0.885023 0.244251
19556 1 0.186041 0.221754 0.244227
19000 1 0.214559 0.0655903 0.195483
19001 1 0.20032 0.393788 0.21986
19002 1 0.228826 0.730989 0.219825
19006 1 0.214559 0.56559 0.195483
19007 1 0.20032 0.893788 0.21986
19008 1 0.228826 0.230989 0.219825
19009 1 0.243108 0.403241 0.195492
19011 1 0.257359 0.0687362 0.219822
19015 1 0.243108 0.903241 0.195492
19017 1 0.257359 0.568736 0.219822
19552 1 0.214552 0.0587285 0.244184
19558 1 0.214552 0.558728 0.244184
19561 1 0.243071 0.396132 0.244161
19567 1 0.243071 0.896132 0.244161
19010 1 0.271657 0.741163 0.195492
19012 1 0.300205 0.0794523 0.195494
19013 1 0.285901 0.406931 0.219824
19014 1 0.314444 0.745583 0.219831
19016 1 0.271657 0.241163 0.195492
19018 1 0.300205 0.579452 0.195494
19019 1 0.285901 0.906931 0.219824
19020 1 0.314444 0.245583 0.219831
19562 1 0.271601 0.734094 0.244155
19564 1 0.30014 0.0725923 0.244159
19568 1 0.271601 0.234094 0.244155
19570 1 0.30014 0.572592 0.244159
19021 1 0.328749 0.418137 0.1955
19022 1 0.357292 0.757276 0.195516
19023 1 0.34299 0.0847363 0.219846
19024 1 0.385835 0.0968762 0.195539
19025 1 0.371536 0.424435 0.219869
19027 1 0.328749 0.918137 0.1955
19028 1 0.357292 0.257276 0.195516
19029 1 0.34299 0.584736 0.219846
19030 1 0.385835 0.596876 0.195539
19031 1 0.371536 0.924435 0.219869
19573 1 0.328683 0.411667 0.244171
19574 1 0.357231 0.751372 0.244193
19576 1 0.385783 0.0917379 0.244222
19579 1 0.328683 0.911667 0.244171
19580 1 0.357231 0.251372 0.244193
19582 1 0.385783 0.591738 0.244222
19026 1 0.400085 0.76467 0.219898
19032 1 0.400085 0.26467 0.219898
19033 1 0.414379 0.436877 0.195564
19034 1 0.442921 0.777189 0.195585
19035 1 0.428634 0.105362 0.219926
19039 1 0.414379 0.936877 0.195564
19040 1 0.442921 0.277189 0.195585
19041 1 0.428634 0.605362 0.219926
19585 1 0.414337 0.432736 0.244256
19586 1 0.442892 0.774271 0.244287
19591 1 0.414337 0.932736 0.244256
19592 1 0.442892 0.274271 0.244287
19036 1 0.471462 0.11771 0.195599
19037 1 0.457181 0.446402 0.219949
19038 1 0.485727 0.787665 0.219961
19042 1 0.471462 0.617711 0.195599
19043 1 0.457181 0.946402 0.219949
19044 1 0.485727 0.287665 0.219961
19588 1 0.471447 0.116196 0.24431
19594 1 0.471447 0.616196 0.24431
19603 1 0.5 0.958334 0.244318
19051 1 0.5 0.958334 0.195604
19530 3 0.0574918 0.705209 0.268473
19536 3 0.0574918 0.20521 0.268473
20080 3 0.0432173 0.0340177 0.292845
20086 3 0.0432173 0.534017 0.292845
19539 3 0.0860407 0.0407703 0.268473
19541 1 0.114724 0.376605 0.268565
19545 3 0.0860407 0.54077 0.268473
19547 1 0.114724 0.876605 0.268565
20089 3 0.0717663 0.369329 0.292845
20090 1 0.100462 0.704922 0.292916
20092 1 0.128934 0.0407701 0.292887
20095 3 0.0717663 0.869329 0.292845
20096 1 0.100462 0.204922 0.292916
20098 1 0.128934 0.54077 0.292887
19542 1 0.143204 0.712821 0.268554
19548 1 0.143204 0.212821 0.268554
19551 1 0.171741 0.0494537 0.268561
19557 1 0.171741 0.549454 0.268561
20101 1 0.157456 0.377002 0.292888
20102 1 0.185976 0.713587 0.292879
20107 1 0.157456 0.877002 0.292888
20108 1 0.185976 0.213587 0.292879
19553 1 0.200264 0.386266 0.268536
19554 1 0.228784 0.723403 0.268511
19559 1 0.200264 0.886266 0.268536
19560 1 0.228784 0.223403 0.268511
19563 1 0.257307 0.0610353 0.268495
19569 1 0.257307 0.561035 0.268495
20119 1 0.243015 0.887798 0.292841
20104 1 0.214497 0.0504866 0.292861
20110 1 0.214497 0.550487 0.292861
20113 1 0.243015 0.387798 0.292841
19565 1 0.285836 0.399252 0.26849
19566 1 0.314374 0.738116 0.268495
19571 1 0.285836 0.899252 0.26849
19572 1 0.314374 0.238116 0.268495
20122 1 0.300066 0.564174 0.292823
20120 1 0.271537 0.225653 0.292828
20114 1 0.271537 0.725653 0.292828
20116 1 0.300066 0.0641741 0.292823
20134 1 0.385711 0.584786 0.292882
20132 1 0.357153 0.243638 0.29285
20131 1 0.328604 0.903467 0.29283
20128 1 0.385711 0.0847855 0.292882
19575 1 0.342919 0.0776942 0.268511
20126 1 0.357153 0.743638 0.29285
19577 1 0.371472 0.418053 0.268538
20125 1 0.328604 0.403467 0.29283
19581 1 0.342919 0.577694 0.268511
19583 1 0.371472 0.918053 0.268538
20144 1 0.44285 0.270115 0.292967
20143 1 0.414278 0.926968 0.292923
20138 1 0.44285 0.770115 0.292967
20137 1 0.414278 0.426968 0.292923
19578 1 0.40003 0.759223 0.268574
19584 1 0.40003 0.259223 0.268574
19587 1 0.428592 0.101171 0.268612
19593 1 0.428592 0.601171 0.268612
20146 1 0.471425 0.614014 0.293
20140 1 0.471425 0.114014 0.293
19589 1 0.457155 0.443753 0.268646
19590 1 0.485718 0.786756 0.268665
19595 1 0.457155 0.943753 0.268646
19596 1 0.485718 0.286756 0.268665
20155 1 0.5 0.958334 0.293012
20640 1 0.0578056 0.189485 0.366001
20639 3 0.0289429 0.855376 0.365958
20638 3 0.0432173 0.526601 0.341587
20636 3 0.0146684 0.191809 0.341587
20634 1 0.0578056 0.689485 0.366001
20633 3 0.0289429 0.355376 0.365958
20632 3 0.0432173 0.0266016 0.341587
20630 3 0.0146684 0.691808 0.341587
20081 3 0.0289429 0.362874 0.317216
20082 3 0.0574918 0.697929 0.317216
20087 3 0.0289429 0.862875 0.317216
20088 3 0.0574918 0.197929 0.317216
20651 1 0.114744 0.859859 0.365963
20650 1 0.128969 0.532136 0.341589
20649 1 0.0862776 0.524644 0.365983
20648 1 0.100492 0.196555 0.341599
20647 1 0.0720993 0.861382 0.341641
20645 1 0.114744 0.359859 0.365963
20644 1 0.128969 0.0321363 0.341589
20643 1 0.0862776 0.0246435 0.365983
20642 1 0.100492 0.696555 0.341599
20641 1 0.0720994 0.361382 0.341641
20091 1 0.0862194 0.0332209 0.317271
20093 1 0.114691 0.368726 0.317235
20097 1 0.0862194 0.533221 0.317271
20099 1 0.114691 0.868726 0.317235
20661 1 0.171706 0.531195 0.36593
20660 1 0.185955 0.204278 0.341566
20659 1 0.157455 0.868045 0.341578
20655 1 0.171706 0.0311949 0.36593
20654 1 0.185955 0.704278 0.341566
20653 1 0.157455 0.368045 0.341578
20652 1 0.143216 0.195362 0.365945
20646 1 0.143216 0.695362 0.365945
20094 1 0.143198 0.704576 0.317231
20100 1 0.143198 0.204576 0.317231
20103 1 0.171706 0.0408149 0.317223
20109 1 0.171706 0.540815 0.317223
20673 1 0.257192 0.540948 0.365868
20671 1 0.242961 0.877909 0.341528
20667 1 0.257192 0.0409485 0.365868
20665 1 0.242961 0.377909 0.341528
20664 1 0.228694 0.20391 0.365891
20663 1 0.200198 0.867356 0.365912
20662 1 0.214457 0.540878 0.341548
20658 1 0.228694 0.70391 0.365891
20657 1 0.200198 0.367356 0.365912
20656 1 0.214457 0.0408778 0.341548
20121 1 0.257244 0.551851 0.317174
20105 1 0.200218 0.377414 0.31721
20106 1 0.22873 0.714393 0.317192
20111 1 0.200218 0.877414 0.31721
20112 1 0.22873 0.214393 0.317192
20115 1 0.257244 0.0518513 0.317174
20676 1 0.314204 0.217099 0.365827
20675 1 0.285694 0.878614 0.365846
20674 1 0.299984 0.553798 0.341493
20672 1 0.271469 0.215493 0.341508
20670 1 0.314204 0.717099 0.365827
20669 1 0.285694 0.378614 0.365846
20668 1 0.299984 0.0537979 0.341493
20666 1 0.271469 0.715493 0.341508
20124 1 0.31429 0.228794 0.317156
20123 1 0.285763 0.889937 0.317161
20118 1 0.31429 0.728794 0.317156
20117 1 0.285763 0.389937 0.317161
20687 1 0.371264 0.897592 0.36582
20686 1 0.385608 0.575068 0.341517
20685 1 0.342725 0.556645 0.365817
20684 1 0.35705 0.233332 0.341494
20683 1 0.32851 0.893002 0.341487
20681 1 0.371264 0.397592 0.36582
20680 1 0.385608 0.0750679 0.341517
20679 1 0.342725 0.0566451 0.365817
20678 1 0.35705 0.733332 0.341494
20677 1 0.32851 0.393002 0.341487
20135 1 0.371383 0.909447 0.317186
20133 1 0.34283 0.568573 0.317164
20129 1 0.371383 0.409447 0.317186
20127 1 0.34283 0.0685733 0.317164
20697 1 0.428421 0.58549 0.365888
20696 1 0.442782 0.263704 0.341612
20695 1 0.414186 0.918484 0.341559
20691 1 0.428421 0.0854908 0.365888
20690 1 0.442782 0.763704 0.341612
20689 1 0.414186 0.418483 0.341559
20688 1 0.399828 0.240383 0.365843
20682 1 0.399828 0.740384 0.365843
20145 1 0.428528 0.595073 0.31727
20139 1 0.428528 0.0950728 0.31727
20136 1 0.399949 0.25159 0.317223
20130 1 0.399949 0.751591 0.317223
20700 1 0.485679 0.283009 0.365989
20699 1 0.457042 0.933187 0.365947
20698 1 0.471389 0.610536 0.34166
20694 1 0.485679 0.78301 0.365989
20693 1 0.457042 0.433188 0.365947
20692 1 0.471389 0.110536 0.34166
20148 1 0.485705 0.285374 0.317346
20147 1 0.457114 0.93978 0.317317
20142 1 0.485705 0.785375 0.317346
20141 1 0.457114 0.439781 0.317317
20707 1 0.5 0.958334 0.341678
21742 1 0.0435056 0.509837 0.439128
21740 3 0.0146684 0.176415 0.439072
21736 1 0.0435056 0.0098373 0.439128
21734 3 0.0146684 0.676415 0.439072
21192 1 0.0577957 0.181504 0.41469
21191 3 0.0289429 0.847454 0.414701
21190 1 0.0432605 0.519691 0.39026
21189 3 0.000393975 0.513329 0.414701
21188 3 0.0146684 0.184279 0.390329
21186 1 0.0577957 0.681504 0.41469
21185 3 0.0289429 0.347454 0.414701
21184 1 0.0432605 0.019691 0.39026
21183 3 0.000393975 0.0133295 0.414701
21182 3 0.0146684 0.684278 0.390329
21754 1 0.128995 0.51282 0.439045
21752 1 0.100507 0.178264 0.439053
21751 1 0.0720131 0.843949 0.439061
21748 1 0.128995 0.0128203 0.439045
21746 1 0.100507 0.678264 0.439053
21745 1 0.0720131 0.343949 0.439061
21203 1 0.114734 0.850504 0.414687
21202 1 0.128975 0.522872 0.390318
21201 1 0.0862353 0.515821 0.414688
21200 1 0.100488 0.187834 0.390335
21199 1 0.0719967 0.853169 0.390335
21197 1 0.114734 0.350504 0.414687
21196 1 0.128975 0.0228716 0.390318
21195 1 0.0862353 0.0158211 0.414688
21194 1 0.100488 0.687834 0.390335
21193 1 0.0719967 0.353169 0.390335
21764 1 0.185979 0.182519 0.439016
21763 1 0.157489 0.847576 0.439032
21758 1 0.185979 0.682519 0.439016
21757 1 0.157489 0.347576 0.439032
21213 1 0.171717 0.520662 0.414657
21212 1 0.185953 0.193933 0.390283
21211 1 0.157464 0.858253 0.390301
21207 1 0.171717 0.0206616 0.414657
21206 1 0.185953 0.693933 0.390283
21205 1 0.157464 0.358253 0.390301
21204 1 0.143226 0.185465 0.414674
21198 1 0.143226 0.685465 0.414674
21775 1 0.242952 0.853176 0.438972
21769 1 0.242952 0.353176 0.438972
21766 1 0.214467 0.517695 0.438996
21760 1 0.214467 0.0176952 0.438996
21225 1 0.257178 0.528179 0.414589
21223 1 0.242933 0.866397 0.390238
21219 1 0.257178 0.0281795 0.414589
21217 1 0.242933 0.366397 0.390238
21216 1 0.228693 0.191946 0.414615
21215 1 0.200206 0.856138 0.414638
21214 1 0.214443 0.529956 0.390262
21210 1 0.228693 0.691946 0.414615
21209 1 0.200206 0.356138 0.414638
21208 1 0.214443 0.0299564 0.390262
21778 1 0.299913 0.5255 0.438916
21776 1 0.271434 0.189061 0.438946
21772 1 0.299913 0.0254998 0.438916
21770 1 0.271434 0.689061 0.438946
21228 1 0.314149 0.202515 0.414531
21227 1 0.285663 0.864966 0.414561
21226 1 0.299919 0.541033 0.390186
21224 1 0.271425 0.203367 0.390212
21222 1 0.314149 0.702515 0.414531
21221 1 0.285663 0.364966 0.414561
21220 1 0.299919 0.041033 0.390186
21218 1 0.271425 0.703367 0.390212
21790 1 0.385346 0.541238 0.438808
21788 1 0.356865 0.201131 0.438847
21787 1 0.328389 0.862741 0.438883
21784 1 0.385346 0.0412378 0.438808
21782 1 0.356865 0.70113 0.438847
21781 1 0.328389 0.362741 0.438883
21239 1 0.37114 0.881218 0.414474
21238 1 0.38547 0.561121 0.390141
21237 1 0.342639 0.541119 0.414501
21236 1 0.356934 0.219497 0.390145
21235 1 0.328421 0.879632 0.390162
21233 1 0.37114 0.381218 0.414474
21232 1 0.38547 0.0611202 0.390141
21231 1 0.342639 0.0411192 0.414501
21230 1 0.356934 0.719496 0.390145
21229 1 0.328421 0.379631 0.390162
21800 1 0.442399 0.231942 0.438725
21799 1 0.413847 0.884056 0.438768
21794 1 0.4424 0.731941 0.438725
21793 1 0.413847 0.384054 0.438768
21249 1 0.428234 0.569256 0.414456
21248 1 0.442655 0.252738 0.390204
21247 1 0.414039 0.905213 0.390158
21243 1 0.428234 0.0692574 0.414456
21242 1 0.442655 0.752737 0.390204
21241 1 0.414039 0.405212 0.390158
21240 1 0.399665 0.223514 0.414456
21234 1 0.399665 0.723515 0.414456
21802 1 0.471119 0.589715 0.438765
21796 1 0.471119 0.0897132 0.438765
21252 1 0.485622 0.278142 0.41457
21251 1 0.456885 0.920526 0.4145
21250 1 0.471317 0.604198 0.390268
21246 1 0.485622 0.778143 0.41457
21245 1 0.456885 0.420527 0.4145
21244 1 0.471317 0.104197 0.390268
21259 1 0.5 0.958334 0.390296
21811 1 0.5 0.958335 0.438854
21744 1 0.0578616 0.172315 0.463459
21743 3 0.0289429 0.83924 0.463443
21741 3 0.000393975 0.50557 0.463443
21738 1 0.0578616 0.672315 0.463459
21737 3 0.0289429 0.339239 0.463443
21735 3 0.000393975 0.00557034 0.463443
22286 3 0.0146684 0.668356 0.487814
22288 1 0.0434881 0.000981628 0.487813
22292 3 0.0146684 0.168356 0.487814
22294 1 0.0434881 0.500982 0.487813
21755 1 0.114775 0.840395 0.463418
21753 1 0.0862943 0.506197 0.463431
21749 1 0.114775 0.340395 0.463418
21747 1 0.0862943 0.00619716 0.463431
22297 1 0.0720452 0.334648 0.487809
22298 1 0.100551 0.668378 0.487792
22300 1 0.129042 0.00224298 0.487781
22303 1 0.0720452 0.834647 0.487809
22304 1 0.100551 0.168378 0.487792
22306 1 0.129042 0.502243 0.487781
21765 1 0.171758 0.509177 0.463393
21759 1 0.171758 0.00917677 0.463393
21756 1 0.143266 0.174737 0.463407
21750 1 0.143266 0.674737 0.463407
22309 1 0.15754 0.336201 0.48777
22310 1 0.186036 0.670208 0.487756
22315 1 0.15754 0.836201 0.48777
22316 1 0.186036 0.170208 0.487756
21777 1 0.257225 0.513489 0.463335
21771 1 0.257225 0.0134889 0.463335
21768 1 0.228739 0.178496 0.463358
21767 1 0.20025 0.84375 0.463377
21762 1 0.228739 0.678496 0.463358
21761 1 0.20025 0.34375 0.463377
22312 1 0.214531 0.00427539 0.48774
22318 1 0.214531 0.504275 0.48774
22321 1 0.243025 0.33843 0.487722
22327 1 0.243025 0.83843 0.487722
21780 1 0.314182 0.184652 0.46328
21779 1 0.285707 0.848819 0.463309
21774 1 0.314182 0.684652 0.46328
21773 1 0.285707 0.348819 0.463309
22322 1 0.271516 0.672716 0.487701
22324 1 0.300002 0.0071932 0.487678
22328 1 0.271516 0.172716 0.487701
22330 1 0.300002 0.507193 0.487678
21791 1 0.37111 0.858965 0.463207
21789 1 0.342651 0.521235 0.463247
21785 1 0.37111 0.358965 0.463207
21783 1 0.342651 0.0212352 0.463247
22333 1 0.328481 0.341986 0.487654
22334 1 0.356948 0.677279 0.487627
22336 1 0.385394 0.0133702 0.487596
22339 1 0.328481 0.841986 0.487654
22340 1 0.356948 0.177279 0.487627
22342 1 0.385394 0.513371 0.487596
21801 1 0.428008 0.541381 0.463087
21795 1 0.428008 0.0413815 0.463087
21792 1 0.399561 0.198561 0.463158
21786 1 0.399561 0.698562 0.463158
22345 1 0.413799 0.350829 0.487553
22346 1 0.442163 0.690926 0.487488
22351 1 0.413799 0.850829 0.487553
22352 1 0.442163 0.190927 0.487488
21804 1 0.485422 0.262657 0.463045
21803 1 0.456526 0.891981 0.462969
21798 1 0.485421 0.762658 0.463045
21797 1 0.456526 0.391983 0.462969
22348 1 0.470617 0.0414976 0.487334
22354 1 0.470617 0.541498 0.487334
22363 1 0.5 0.958334 0.487386
22287 3 0.000393975 0.997704 0.512186
22289 3 0.0289429 0.330898 0.512186
22290 1 0.057864 0.663254 0.512172
22293 3 0.000393975 0.497703 0.512186
22295 3 0.0289429 0.830898 0.512186
22296 1 0.057864 0.163254 0.512172
22838 3 0.0146684 0.660262 0.536557
22839 3 0.000393975 0.989882 0.560928
22840 1 0.043496 0.992319 0.536539
22841 3 0.0289429 0.322609 0.560928
22842 1 0.057886 0.654519 0.560873
22844 3 0.0146684 0.160263 0.536557
22845 3 0.000393975 0.489882 0.560928
22846 1 0.043496 0.492319 0.536539
22847 3 0.0289429 0.822609 0.560928
22848 1 0.0578861 0.154519 0.560873
22299 1 0.0863219 0.996627 0.512162
22301 1 0.114818 0.330134 0.512153
22305 1 0.0863219 0.496627 0.512162
22307 1 0.114818 0.830134 0.512153
22849 1 0.0720649 0.325441 0.536523
22850 1 0.100582 0.658512 0.536521
22851 1 0.0863431 0.987242 0.560883
22852 1 0.129083 0.99159 0.536518
22853 1 0.114841 0.319992 0.560888
22855 1 0.0720649 0.825441 0.536523
22856 1 0.100582 0.158512 0.536521
22857 1 0.0863431 0.487242 0.560883
22858 1 0.129083 0.49159 0.536518
22859 1 0.114841 0.819992 0.560888
22302 1 0.143316 0.663658 0.512145
22308 1 0.143316 0.163658 0.512145
22311 1 0.171817 0.997152 0.512134
22317 1 0.171817 0.497152 0.512134
22854 1 0.143349 0.652672 0.560883
22860 1 0.143349 0.152672 0.560883
22861 1 0.15759 0.324635 0.536509
22862 1 0.186099 0.657574 0.536497
22863 1 0.171863 0.985185 0.560873
22867 1 0.15759 0.824635 0.536509
22868 1 0.186099 0.157574 0.536497
22869 1 0.171863 0.485185 0.560873
22313 1 0.20032 0.330614 0.51212
22314 1 0.228823 0.664035 0.512105
22319 1 0.20032 0.830614 0.51212
22320 1 0.228823 0.164035 0.512105
22323 1 0.257325 0.9974 0.512088
22329 1 0.257325 0.4974 0.512088
22864 1 0.21461 0.990379 0.536484
22865 1 0.200382 0.317497 0.560859
22866 1 0.228904 0.649539 0.560845
22870 1 0.21461 0.490379 0.536484
22871 1 0.200382 0.817497 0.560859
22872 1 0.228904 0.149539 0.560845
22873 1 0.243123 0.322996 0.536469
22875 1 0.257428 0.981203 0.560833
22879 1 0.243123 0.822997 0.536469
22881 1 0.257428 0.481203 0.560833
22325 1 0.285826 0.330696 0.512071
22326 1 0.314323 0.663911 0.512055
22331 1 0.285826 0.830696 0.512071
22332 1 0.314323 0.163911 0.512055
22874 1 0.271637 0.655352 0.536455
22876 1 0.300151 0.987351 0.536444
22877 1 0.285954 0.312357 0.560824
22878 1 0.31448 0.642803 0.560823
22880 1 0.271637 0.155352 0.536455
22882 1 0.300151 0.487351 0.536444
22883 1 0.285954 0.812357 0.560824
22884 1 0.31448 0.142803 0.560823
22335 1 0.342814 0.997024 0.512041
22337 1 0.371295 0.329914 0.512032
22341 1 0.342814 0.497024 0.512041
22343 1 0.371295 0.829913 0.512032
22885 1 0.328664 0.318842 0.536438
22886 1 0.357174 0.649498 0.536443
22887 1 0.343005 0.972185 0.560834
22888 1 0.385681 0.978639 0.536465
22889 1 0.371527 0.299862 0.560865
22891 1 0.328664 0.818842 0.536438
22892 1 0.357174 0.149499 0.536443
22893 1 0.343005 0.472184 0.560834
22894 1 0.385681 0.478638 0.536465
22895 1 0.371527 0.799862 0.560865
22338 1 0.399757 0.66227 0.51203
22344 1 0.399757 0.16227 0.51203
22347 1 0.428194 0.993231 0.512047
22353 1 0.428194 0.49323 0.512047
22890 1 0.400046 0.624692 0.560934
22896 1 0.400046 0.124692 0.560934
22897 1 0.414186 0.304848 0.536524
22898 1 0.442712 0.624815 0.536654
22899 1 0.428563 0.944658 0.561068
22903 1 0.414186 0.804848 0.536524
22904 1 0.442712 0.124814 0.536654
22905 1 0.428563 0.444658 0.561069
22349 1 0.456679 0.320426 0.512115
22350 1 0.485356 0.624951 0.512387
22355 1 0.456679 0.820426 0.512115
22356 1 0.485356 0.124951 0.512387
22900 1 0.471257 0.929315 0.537001
22901 1 0.457074 0.256383 0.561349
22902 1 0.485638 0.558798 0.561704
22906 1 0.471257 0.429317 0.537001
22907 1 0.457074 0.756384 0.561349
22908 1 0.485637 0.0587965 0.561704
22915 1 0.5 0.708332 0.537493
23390 3 0.0146684 0.652299 0.585299
23391 3 0.000393975 0.982251 0.609671
23392 1 0.0435222 0.984073 0.585204
23393 3 0.0289429 0.314547 0.609671
23394 1 0.0578435 0.646363 0.609584
23396 3 0.0146684 0.152299 0.585299
23397 3 0.000393975 0.482251 0.609671
23398 1 0.0435222 0.484073 0.585204
23399 3 0.0289429 0.814547 0.609671
23400 1 0.0578435 0.146363 0.609584
23401 1 0.0720661 0.316604 0.585243
23402 1 0.100579 0.648979 0.585256
23403 1 0.0862839 0.978414 0.609626
23404 1 0.129087 0.981276 0.585256
23405 1 0.114809 0.31046 0.609624
23407 1 0.0720661 0.816604 0.585243
23408 1 0.100579 0.148979 0.585256
23409 1 0.0862839 0.478414 0.609626
23410 1 0.129087 0.481276 0.585256
23411 1 0.114809 0.81046 0.609624
23406 1 0.143337 0.642322 0.609616
23412 1 0.143337 0.142322 0.609616
23413 1 0.15761 0.313444 0.585245
23414 1 0.186136 0.645367 0.585232
23415 1 0.171873 0.973939 0.609602
23419 1 0.15761 0.813444 0.585245
23420 1 0.186136 0.145367 0.585232
23421 1 0.171873 0.473939 0.609602
23416 1 0.214666 0.976979 0.585217
23417 1 0.20041 0.305234 0.609587
23418 1 0.228949 0.636097 0.609575
23422 1 0.214666 0.476979 0.585217
23423 1 0.20041 0.805234 0.609587
23424 1 0.228949 0.136097 0.609575
23425 1 0.243198 0.308164 0.585206
23427 1 0.257488 0.966392 0.609567
23431 1 0.243198 0.808164 0.585206
23433 1 0.257488 0.466392 0.609567
23426 1 0.271732 0.638778 0.585198
23428 1 0.300265 0.968622 0.585199
23429 1 0.286025 0.295932 0.609568
23430 1 0.31456 0.624467 0.609582
23432 1 0.271732 0.138778 0.585198
23434 1 0.300265 0.468622 0.585199
23435 1 0.286025 0.795932 0.609568
23436 1 0.31456 0.124467 0.609582
23437 1 0.328797 0.297384 0.585212
23438 1 0.357325 0.624571 0.585245
23439 1 0.343091 0.951637 0.609614
23440 1 0.385847 0.949399 0.585312
23441 1 0.371614 0.276945 0.609674
23443 1 0.328797 0.797384 0.585212
23444 1 0.357325 0.124571 0.585245
23445 1 0.343091 0.451637 0.609614
23446 1 0.385847 0.449399 0.585312
23447 1 0.371614 0.776945 0.609674
23442 1 0.400128 0.599749 0.609775
23448 1 0.400128 0.0997489 0.609775
23449 1 0.414362 0.270739 0.58543
23450 1 0.44287 0.587217 0.585632
23451 1 0.428637 0.919447 0.609926
23455 1 0.414362 0.770738 0.58543
23456 1 0.44287 0.087218 0.585632
23457 1 0.428637 0.419447 0.609925
23452 1 0.471398 0.898771 0.585883
23453 1 0.457157 0.236102 0.610108
23454 1 0.485713 0.551022 0.610233
23458 1 0.471398 0.398768 0.585883
23459 1 0.457157 0.736102 0.610108
23460 1 0.485713 0.0510235 0.610233
23461 1 0.5 0.208332 0.585987
23942 3 0.0146684 0.644615 0.634042
23944 3 0.0432173 0.976646 0.634042
23945 3 0.0289429 0.306858 0.658413
23946 3 0.0574918 0.638618 0.658413
23948 3 0.0146684 0.144615 0.634042
23950 3 0.0432173 0.476646 0.634042
23951 3 0.0289429 0.806859 0.658413
23952 3 0.0574918 0.138619 0.658413
24496 3 0.0432173 0.969006 0.682784
24502 3 0.0432173 0.469005 0.682784
23953 1 0.0719729 0.308523 0.633966
23954 1 0.100495 0.640214 0.633988
23955 1 0.0862308 0.97027 0.658318
23956 1 0.129049 0.971777 0.633979
23957 1 0.114752 0.301663 0.658338
23959 1 0.0719729 0.808523 0.633966
23960 1 0.100495 0.140214 0.633988
23961 1 0.0862308 0.47027 0.658318
23962 1 0.129049 0.471777 0.633979
23963 1 0.114752 0.801663 0.658338
24505 1 0.071803 0.300534 0.682765
24506 1 0.100511 0.631845 0.682674
24508 1 0.129023 0.962933 0.682692
24511 1 0.071803 0.800534 0.682765
24512 1 0.100511 0.131845 0.682674
24514 1 0.129023 0.462933 0.682692
23958 1 0.143309 0.632834 0.65833
23964 1 0.143309 0.132834 0.65833
23965 1 0.157593 0.303134 0.633969
23966 1 0.186139 0.634194 0.633954
23967 1 0.171857 0.96373 0.658319
23971 1 0.157593 0.803134 0.633969
23972 1 0.186139 0.134194 0.633954
23973 1 0.171857 0.46373 0.658319
24517 1 0.157576 0.293744 0.682681
24518 1 0.186124 0.624225 0.682669
24523 1 0.157576 0.793744 0.682681
24524 1 0.186124 0.124225 0.682669
23968 1 0.214683 0.964849 0.633941
23969 1 0.200407 0.294264 0.658305
23970 1 0.228954 0.62432 0.658296
23974 1 0.214683 0.464849 0.633941
23975 1 0.200407 0.794264 0.658305
23976 1 0.228954 0.12432 0.658296
23977 1 0.243227 0.294974 0.633933
23979 1 0.257498 0.953758 0.658295
23983 1 0.243227 0.794974 0.633933
23985 1 0.257498 0.453758 0.658295
24520 1 0.214675 0.954284 0.682657
24526 1 0.214675 0.454284 0.682657
24529 1 0.243222 0.283792 0.682654
24535 1 0.243222 0.783792 0.682654
23978 1 0.271768 0.624406 0.633933
23980 1 0.300305 0.952938 0.633946
23981 1 0.286037 0.282411 0.658306
23982 1 0.31457 0.610085 0.658333
23984 1 0.271768 0.124406 0.633933
23986 1 0.300305 0.452938 0.633946
23987 1 0.286037 0.782411 0.658306
23988 1 0.31457 0.110085 0.658333
24530 1 0.271764 0.612618 0.682663
24532 1 0.300298 0.940617 0.682686
24536 1 0.271764 0.112618 0.682663
24538 1 0.300298 0.440617 0.682686
23989 1 0.328837 0.28031 0.633976
23990 1 0.357361 0.606206 0.63403
23991 1 0.343097 0.936568 0.658379
23992 1 0.385877 0.93027 0.634114
23993 1 0.371615 0.261652 0.658451
23995 1 0.328837 0.78031 0.633976
23996 1 0.357361 0.106206 0.63403
23997 1 0.343097 0.436568 0.658379
23998 1 0.385877 0.430269 0.634114
23999 1 0.371615 0.761652 0.658451
24541 1 0.328826 0.26764 0.682726
24542 1 0.357348 0.59356 0.682786
24544 1 0.385866 0.918299 0.682866
24547 1 0.328826 0.76764 0.682726
24548 1 0.357348 0.0935596 0.682786
24550 1 0.385866 0.418299 0.682866
23994 1 0.40013 0.58519 0.658547