ITEM: TIMESTEP
39
ITEM: NUMBER OF ATOMS
2346
ITEM: BOX BOUNDS ss pp ss
-4.0826385615000000e+01 4.0826373533999998e+01
-4.1208122699999999e-01 4.5329187729999996e+00
-4.1333387709000000e+01 4.1501597843000006e+01
ITEM: ATOMS id type xs ys zs
17354 3 0.271609 0.754742 0.0491324
17356 3 0.300158 0.0921553 0.0491324
17360 3 0.271609 0.254742 0.0491324
17362 3 0.300158 0.592155 0.0491324
16815 3 0.342981 0.0998954 0.0247612
16817 3 0.37153 0.437567 0.0247612
16821 3 0.342981 0.599895 0.0247612
16823 3 0.37153 0.937568 0.0247612
17365 3 0.328707 0.429759 0.0491324
17366 3 0.357255 0.767543 0.0491324
17368 1 0.385892 0.104994 0.049164
17371 3 0.328707 0.92976 0.0491324
17372 3 0.357255 0.267544 0.0491324
17374 1 0.385892 0.604994 0.049164
16818 3 0.400079 0.775371 0.0247612
16824 3 0.400079 0.275371 0.0247612
16825 3 0.414353 0.444985 0.00038994
16826 3 0.442902 0.782722 0.00038994
16827 3 0.428628 0.11328 0.0247612
16831 3 0.414353 0.944986 0.00038994
16832 3 0.442902 0.282722 0.00038994
16833 3 0.428628 0.61328 0.0247612
17377 1 0.414484 0.444539 0.0494587
17378 1 0.443028 0.782209 0.0494807
17383 1 0.414484 0.944539 0.0494587
17384 1 0.443028 0.282209 0.0494807
16828 3 0.471451 0.120514 0.00038994
16829 3 0.457177 0.451268 0.0247612
16830 3 0.485726 0.789306 0.0247612
16834 3 0.471451 0.620513 0.00038994
16835 3 0.457177 0.951269 0.0247612
16836 3 0.485726 0.289307 0.0247612
17380 1 0.471492 0.120077 0.0493505
17386 1 0.471492 0.620077 0.0493505
17389 1 0.5 0.458334 0.0493362
17895 3 0.171687 0.0685237 0.122246
17901 3 0.171687 0.568523 0.122246
17346 3 0.228785 0.747025 0.0735036
17352 3 0.228785 0.247025 0.0735036
17355 3 0.257334 0.0842445 0.0735036
17361 3 0.257334 0.584244 0.0735036
17896 3 0.214511 0.0763157 0.0978748
17897 3 0.200236 0.405405 0.122246
17898 1 0.228738 0.741533 0.122336
17902 3 0.214511 0.576315 0.0978748
17903 3 0.200236 0.905406 0.122246
17904 1 0.228738 0.241533 0.122336
17905 3 0.24306 0.413514 0.0978748
17907 1 0.257463 0.0800732 0.12255
17911 3 0.24306 0.913515 0.0978748
17913 1 0.257463 0.580073 0.12255
17357 3 0.285883 0.421689 0.0735036
17358 1 0.31453 0.75876 0.0735263
17363 3 0.285883 0.92169 0.0735036
17364 1 0.31453 0.25876 0.0735263
17906 1 0.271766 0.751315 0.098156
17908 1 0.300354 0.0888852 0.0981499
17909 1 0.286007 0.418042 0.122472
17910 1 0.314557 0.756129 0.122446
17912 1 0.271766 0.251315 0.098156
17914 1 0.300354 0.588885 0.0981499
17915 1 0.286007 0.918042 0.122472
17916 1 0.314557 0.256129 0.122446
17367 1 0.343141 0.0981131 0.0738133
17369 1 0.371725 0.4358 0.073795
17373 1 0.343141 0.598113 0.0738133
17375 1 0.371725 0.9358 0.073795
17917 1 0.328858 0.426917 0.0981082
17918 1 0.35741 0.765522 0.0981257
17919 1 0.343094 0.0944697 0.122457
17920 1 0.385933 0.103858 0.0981124
17921 1 0.371638 0.433126 0.122475
17923 1 0.328858 0.926917 0.0981082
17924 1 0.35741 0.265522 0.0981257
17925 1 0.343094 0.59447 0.122457
17926 1 0.385933 0.603858 0.0981124
17927 1 0.371638 0.933126 0.122475
17370 1 0.400214 0.774004 0.0737649
17376 1 0.400214 0.274004 0.0737649
17379 1 0.428743 0.112628 0.0737981
17385 1 0.428743 0.612628 0.0737981
17922 1 0.400168 0.771865 0.122482
17928 1 0.400168 0.271865 0.122482
17929 1 0.414453 0.442368 0.0981339
17930 1 0.442985 0.781111 0.0981403
17931 1 0.428698 0.11079 0.122492
17935 1 0.414453 0.942368 0.0981339
17936 1 0.442985 0.281111 0.0981403
17937 1 0.428698 0.61079 0.122492
17381 1 0.45726 0.450942 0.0737495
17382 1 0.485752 0.789146 0.0736979
17387 1 0.45726 0.950942 0.0737495
17388 1 0.485752 0.289146 0.0736979
17932 1 0.471499 0.119757 0.0981119
17933 1 0.457227 0.449834 0.122491
17934 1 0.485744 0.788842 0.122482
17938 1 0.471499 0.619757 0.0981119
17939 1 0.457227 0.949834 0.122491
17940 1 0.485744 0.288842 0.122482
17947 1 0.5 0.958334 0.0980948
17941 1 0.5 0.458334 0.0980948
18437 3 0.11459 0.390008 0.170988
18443 3 0.11459 0.890008 0.170988
18438 3 0.143139 0.726385 0.170988
18444 3 0.143139 0.226386 0.170988
18445 3 0.157413 0.397525 0.146617
18446 3 0.185962 0.734307 0.146617
18447 1 0.171642 0.0620214 0.171061
18451 3 0.157413 0.897525 0.146617
18452 3 0.185962 0.234307 0.146617
18453 1 0.171642 0.562021 0.171061
18448 1 0.21468 0.0719555 0.146894
18449 1 0.200359 0.400109 0.171277
18450 1 0.228883 0.737587 0.171212
18454 1 0.21468 0.571956 0.146894
18455 1 0.200359 0.900109 0.171277
18456 1 0.228883 0.237587 0.171212
18457 1 0.243161 0.408768 0.146848
18459 1 0.257413 0.0750841 0.171163
18463 1 0.243161 0.908768 0.146848
18465 1 0.257413 0.575084 0.171163
18458 1 0.271695 0.746689 0.146818
18460 1 0.300251 0.0848062 0.146802
18461 1 0.285953 0.41311 0.171141
18462 1 0.314494 0.751474 0.171135
18464 1 0.271695 0.246689 0.146818
18466 1 0.300251 0.584806 0.146802
18467 1 0.285953 0.91311 0.171141
18468 1 0.314494 0.251474 0.171135
18469 1 0.328792 0.423187 0.146796
18470 1 0.357335 0.761876 0.146808
18471 1 0.343038 0.0901971 0.171145
18472 1 0.385876 0.100843 0.146827
18473 1 0.371581 0.429301 0.171165
18475 1 0.328792 0.923187 0.146796
18476 1 0.357335 0.261876 0.146808
18477 1 0.343038 0.590197 0.171145
18478 1 0.385876 0.600843 0.146827
18479 1 0.371581 0.929301 0.171165
18474 1 0.400124 0.768731 0.171186
18480 1 0.400124 0.268731 0.171186
18481 1 0.414413 0.440015 0.146843
18482 1 0.442948 0.77939 0.146855
18483 1 0.428664 0.108433 0.171205
18487 1 0.414413 0.940015 0.146843
18488 1 0.442948 0.27939 0.146855
18489 1 0.428664 0.608433 0.171205
18484 1 0.471477 0.118859 0.146858
18485 1 0.457201 0.448331 0.171218
18486 1 0.485734 0.788322 0.171224
18490 1 0.471477 0.618859 0.146858
18491 1 0.457201 0.948331 0.171218
18492 1 0.485734 0.288322 0.171224
18493 1 0.5 0.458334 0.146857
18986 3 0.100315 0.718917 0.19536
18987 3 0.0860407 0.0477591 0.219731
18988 3 0.128864 0.0551265 0.19536
18989 3 0.11459 0.383775 0.219731
18992 3 0.100315 0.218917 0.19536
18993 3 0.0860407 0.547759 0.219731
18994 3 0.128864 0.555126 0.19536
18995 3 0.11459 0.883775 0.219731
19537 3 0.0717663 0.376561 0.244102
19538 3 0.100315 0.712362 0.244102
19540 1 0.128999 0.0484407 0.244229
19543 3 0.0717663 0.876562 0.244102
19544 3 0.100315 0.212363 0.244102
19546 1 0.128999 0.548441 0.244229
18990 1 0.143349 0.720283 0.219991
18996 1 0.143349 0.220283 0.219991
18997 1 0.157602 0.392196 0.195609
18998 1 0.18607 0.728447 0.195564
18999 1 0.171821 0.0569865 0.219926
19003 1 0.157602 0.892196 0.195609
19004 1 0.18607 0.228447 0.195564
19005 1 0.171821 0.556986 0.219926
19549 1 0.157508 0.385091 0.24425
19550 1 0.186039 0.721795 0.244233
19555 1 0.157508 0.885091 0.24425
19556 1 0.186039 0.221795 0.244233
19000 1 0.214587 0.0657666 0.19554
19001 1 0.200321 0.393784 0.21988
19002 1 0.228842 0.731129 0.219854
19006 1 0.214587 0.565767 0.19554
19007 1 0.200321 0.893784 0.21988
19008 1 0.228842 0.231129 0.219854
19009 1 0.24313 0.403285 0.195517
19011 1 0.257372 0.0688194 0.219829
19015 1 0.24313 0.903285 0.195517
19017 1 0.257372 0.568819 0.219829
19552 1 0.214555 0.0588145 0.244196
19558 1 0.214555 0.558815 0.244196
19561 1 0.243081 0.396262 0.244172
19567 1 0.243081 0.896262 0.244172
19010 1 0.271662 0.741103 0.195485
19012 1 0.3002 0.0793667 0.195475
19013 1 0.285907 0.40693 0.219815
19014 1 0.314445 0.745557 0.219813
19016 1 0.271662 0.241103 0.195485
19018 1 0.3002 0.579367 0.195475
19019 1 0.285907 0.90693 0.219815
19020 1 0.314445 0.245557 0.219813
19562 1 0.271611 0.734188 0.244154
19564 1 0.300146 0.0726375 0.244146
19568 1 0.271611 0.234188 0.244154
19570 1 0.300146 0.572637 0.244146
19021 1 0.328742 0.41809 0.19548
19022 1 0.357286 0.757267 0.195497
19023 1 0.342988 0.0847269 0.219825
19024 1 0.385831 0.0968805 0.195521
19025 1 0.371534 0.42444 0.219848
19027 1 0.328742 0.91809 0.19548
19028 1 0.357286 0.257267 0.195497
19029 1 0.342988 0.584727 0.219825
19030 1 0.385831 0.59688 0.195521
19031 1 0.371534 0.92444 0.219848
19573 1 0.328686 0.411688 0.244152
19574 1 0.357232 0.751392 0.24417
19576 1 0.385783 0.0917605 0.244199
19579 1 0.328686 0.911688 0.244152
19580 1 0.357232 0.251392 0.24417
19582 1 0.385783 0.59176 0.244199
19026 1 0.400083 0.764677 0.219877
19032 1 0.400083 0.264677 0.219877
19033 1 0.414376 0.436882 0.195546
19034 1 0.44292 0.777196 0.195567
19035 1 0.428633 0.105367 0.219906
19039 1 0.414376 0.936882 0.195546
19040 1 0.44292 0.277196 0.195567
19041 1 0.428633 0.605367 0.219906
19585 1 0.414337 0.432759 0.244233
19586 1 0.442892 0.774286 0.244265
19591 1 0.414337 0.932759 0.244233
19592 1 0.442892 0.274286 0.244265
19036 1 0.471461 0.117714 0.195581
19037 1 0.457181 0.446409 0.219929
19038 1 0.485727 0.787669 0.219942
19042 1 0.471461 0.617714 0.195581
19043 1 0.457181 0.946409 0.219929
19044 1 0.485727 0.287669 0.219942
19588 1 0.471447 0.116208 0.244288
19594 1 0.471447 0.616208 0.244288
19597 1 0.5 0.458334 0.244296
19045 1 0.5 0.458334 0.195586
19530 3 0.0574918 0.705354 0.268473
19536 3 0.0574918 0.205355 0.268473
20080 3 0.0432173 0.0341662 0.292845
20086 3 0.0432173 0.534166 0.292845
19539 3 0.0860407 0.0409206 0.268473
19541 1 0.114724 0.376746 0.268564
19545 3 0.0860407 0.54092 0.268473
19547 1 0.114724 0.876746 0.268564
20089 3 0.0717663 0.369483 0.292845
20090 1 0.100461 0.705078 0.292915
20092 1 0.128934 0.0409154 0.292884
20095 3 0.0717663 0.869484 0.292845
20096 1 0.100461 0.205078 0.292915
20098 1 0.128934 0.540915 0.292884
19542 1 0.143203 0.712934 0.268552
19548 1 0.143203 0.212934 0.268552
19551 1 0.17174 0.0495455 0.268561
19557 1 0.17174 0.549546 0.268561
20101 1 0.157455 0.377135 0.292885
20102 1 0.185977 0.713716 0.292878
20107 1 0.157455 0.877135 0.292885
20108 1 0.185977 0.213716 0.292878
19553 1 0.200264 0.386363 0.26854
19554 1 0.228789 0.723531 0.268516
19559 1 0.200264 0.886363 0.26854
19560 1 0.228789 0.223531 0.268516
19563 1 0.257314 0.0611784 0.268495
19569 1 0.257314 0.561178 0.268495
20119 1 0.243021 0.88796 0.292838
20104 1 0.2145 0.0506278 0.29286
20110 1 0.2145 0.550628 0.29286
20113 1 0.243021 0.38796 0.292838
19565 1 0.285844 0.399373 0.268481
19566 1 0.31438 0.738201 0.268479
19571 1 0.285844 0.899373 0.268481
19572 1 0.31438 0.238201 0.268479
20122 1 0.300073 0.564319 0.292809
20120 1 0.271544 0.225818 0.292819
20114 1 0.271544 0.725818 0.292819
20116 1 0.300073 0.0643194 0.292809
20134 1 0.385714 0.584865 0.292856
20132 1 0.357157 0.24373 0.292826
20131 1 0.32861 0.903582 0.29281
19575 1 0.342923 0.0777552 0.26849
20128 1 0.385714 0.0848647 0.292856
19577 1 0.371474 0.418106 0.268514
20126 1 0.357157 0.74373 0.292826
19581 1 0.342923 0.577755 0.26849
20125 1 0.32861 0.403582 0.29281
19583 1 0.371474 0.918106 0.268514
20144 1 0.442852 0.270161 0.29294
20143 1 0.41428 0.927033 0.292897
20138 1 0.442852 0.770162 0.29294
20137 1 0.41428 0.427033 0.292897
19578 1 0.400031 0.759274 0.268549
19584 1 0.400031 0.259274 0.268549
19587 1 0.428593 0.101208 0.268588
19593 1 0.428593 0.601208 0.268588
20146 1 0.471425 0.614039 0.292974
20140 1 0.471425 0.114039 0.292974
19589 1 0.457156 0.443774 0.268621
19590 1 0.485719 0.786765 0.268641
19595 1 0.457156 0.943774 0.268621
19596 1 0.485719 0.286765 0.268641
20149 1 0.5 0.458334 0.292986
20640 1 0.0578056 0.189659 0.366
20639 3 0.0289429 0.855537 0.365958
20638 3 0.0432173 0.526761 0.341587
20636 3 0.0146684 0.191961 0.341587
20634 1 0.0578056 0.689659 0.366
20633 3 0.0289429 0.355537 0.365958
20632 3 0.0432173 0.0267616 0.341587
20630 3 0.0146684 0.691961 0.341587
20081 3 0.0289429 0.363025 0.317216
20082 3 0.0574918 0.698087 0.317216
20087 3 0.0289429 0.863026 0.317216
20088 3 0.0574918 0.198087 0.317216
20651 1 0.114745 0.860057 0.365956
20650 1 0.128969 0.532316 0.341584
20649 1 0.0862781 0.52483 0.365979
20648 1 0.100492 0.196732 0.341596
20647 1 0.0720994 0.861552 0.34164
20645 1 0.114745 0.360057 0.365956
20644 1 0.128969 0.0323164 0.341584
20643 1 0.0862781 0.0248302 0.365979
20642 1 0.100492 0.696732 0.341596
20641 1 0.0720994 0.361552 0.34164
20091 1 0.0862193 0.0333862 0.317269
20093 1 0.114691 0.368892 0.317232
20097 1 0.0862193 0.533386 0.317269
20099 1 0.114691 0.868892 0.317232
20661 1 0.171709 0.531416 0.365919
20660 1 0.185957 0.204475 0.341557
20659 1 0.157457 0.86823 0.341571
20655 1 0.171709 0.0314163 0.365919
20654 1 0.185957 0.704475 0.341557
20653 1 0.157457 0.36823 0.341571
20652 1 0.143218 0.195572 0.365937
20646 1 0.143218 0.695572 0.365937
20094 1 0.143198 0.704736 0.317227
20100 1 0.143198 0.204736 0.317227
20103 1 0.171706 0.0409753 0.317218
20109 1 0.171706 0.540975 0.317218
20673 1 0.257202 0.541203 0.36585
20671 1 0.242968 0.878128 0.341516
20667 1 0.257202 0.0412027 0.36585
20665 1 0.242968 0.378128 0.341516
20664 1 0.228702 0.204158 0.365876
20663 1 0.200204 0.867593 0.365899
20662 1 0.214462 0.541085 0.341538
20658 1 0.228702 0.704158 0.365876
20657 1 0.200204 0.367593 0.365899
20656 1 0.214462 0.0410847 0.341538
20121 1 0.25725 0.552042 0.317164
20105 1 0.200221 0.377578 0.317205
20106 1 0.228735 0.714569 0.317185
20111 1 0.200221 0.877578 0.317205
20112 1 0.228735 0.214569 0.317185
20115 1 0.25725 0.0520422 0.317164
20676 1 0.314214 0.217331 0.365803
20675 1 0.285705 0.878865 0.365825
20674 1 0.299994 0.554014 0.341474
20672 1 0.271478 0.215722 0.341493
20670 1 0.314214 0.717331 0.365803
20669 1 0.285705 0.378865 0.365825
20668 1 0.299994 0.0540143 0.341474
20666 1 0.271478 0.715722 0.341493
20124 1 0.314298 0.228962 0.317137
20123 1 0.28577 0.890126 0.317146
20117 1 0.28577 0.390126 0.317146
20118 1 0.314298 0.728962 0.317137
20687 1 0.371272 0.897773 0.365791
20686 1 0.385614 0.575206 0.34149
20685 1 0.342735 0.556855 0.36579
20684 1 0.357058 0.233494 0.341468
20683 1 0.328519 0.893192 0.341464
20681 1 0.371272 0.397773 0.365791
20680 1 0.385614 0.0752057 0.34149
20679 1 0.342735 0.0568552 0.36579
20678 1 0.357058 0.733494 0.341468
20677 1 0.328519 0.393192 0.341464
20135 1 0.371388 0.909566 0.31716
20133 1 0.342836 0.568713 0.31714
20129 1 0.371388 0.409566 0.31716
20127 1 0.342836 0.068713 0.31714
20697 1 0.428426 0.585609 0.365858
20696 1 0.442785 0.263782 0.341584
20695 1 0.414191 0.918593 0.34153
20691 1 0.428426 0.0856081 0.365858
20690 1 0.442785 0.763782 0.341584
20689 1 0.414191 0.418593 0.34153
20688 1 0.399834 0.240534 0.365813
20682 1 0.399834 0.740534 0.365813
20145 1 0.428531 0.595149 0.317243
20139 1 0.428531 0.0951488 0.317243
20136 1 0.399953 0.251689 0.317196
20130 1 0.399953 0.751689 0.317196
20700 1 0.48568 0.283032 0.365959
20699 1 0.457045 0.93326 0.365917
20698 1 0.47139 0.610575 0.34163
20694 1 0.48568 0.783032 0.365959
20693 1 0.457045 0.43326 0.365917
20692 1 0.47139 0.110575 0.34163
20148 1 0.485705 0.285393 0.317318
20147 1 0.457116 0.939832 0.317289
20142 1 0.485705 0.785393 0.317318
20141 1 0.457116 0.439832 0.317289
20701 1 0.5 0.458334 0.341649
21742 1 0.0435055 0.510019 0.439126
21740 3 0.0146684 0.176582 0.439072
21736 1 0.0435055 0.0100188 0.439126
21734 3 0.0146684 0.676581 0.439072
21192 1 0.0577956 0.181691 0.414687
21191 3 0.0289429 0.847623 0.414701
21190 1 0.0432599 0.519867 0.390258
21189 3 0.000393975 0.513488 0.414701
21188 3 0.0146684 0.184439 0.390329
21186 1 0.0577956 0.681691 0.414687
21185 3 0.0289429 0.347622 0.414701
21184 1 0.0432599 0.019867 0.390258
21183 3 0.000393975 0.013489 0.414701
21182 3 0.0146684 0.684439 0.390329
21754 1 0.129 0.513082 0.439029
21752 1 0.10051 0.178498 0.439042
21751 1 0.0720141 0.844155 0.439055
21748 1 0.129 0.0130821 0.439029
21746 1 0.10051 0.678498 0.439042
21745 1 0.0720141 0.344155 0.439055
21203 1 0.114736 0.850736 0.414676
21202 1 0.128977 0.523094 0.390309
21201 1 0.0862365 0.516032 0.414681
21200 1 0.100489 0.188042 0.390328
21199 1 0.0719971 0.853358 0.390331
21197 1 0.114736 0.350736 0.414676
21196 1 0.128977 0.0230944 0.390309
21195 1 0.0862365 0.0160319 0.414681
21194 1 0.100489 0.688042 0.390328
21193 1 0.0719971 0.353358 0.390331
21764 1 0.185991 0.182836 0.438992
21763 1 0.157497 0.847868 0.439012
21758 1 0.185991 0.682836 0.438992
21757 1 0.157497 0.347868 0.439012
21213 1 0.171725 0.520939 0.414639
21212 1 0.18596 0.194188 0.390267
21211 1 0.157468 0.858493 0.390289
21207 1 0.171725 0.0209386 0.414639
21206 1 0.18596 0.694188 0.390267
21205 1 0.157468 0.358493 0.390289
21204 1 0.143231 0.18572 0.41466
21198 1 0.143231 0.68572 0.41466
21775 1 0.242969 0.853519 0.438943
21769 1 0.242969 0.353519 0.438943
21766 1 0.214482 0.518031 0.438969
21760 1 0.214482 0.0180315 0.438969
21225 1 0.257193 0.528493 0.414563
21223 1 0.242944 0.866678 0.390217
21219 1 0.257193 0.0284926 0.414563
21217 1 0.242944 0.366678 0.390217
21216 1 0.228705 0.192255 0.414591
21215 1 0.200216 0.856434 0.414617
21214 1 0.214452 0.530229 0.390244
21210 1 0.228705 0.692255 0.414591
21209 1 0.200216 0.356434 0.414617
21208 1 0.214452 0.0302293 0.390244
21778 1 0.299932 0.525837 0.438884
21776 1 0.271453 0.189404 0.438915
21772 1 0.299932 0.0258374 0.438884
21770 1 0.271453 0.689404 0.438915
21228 1 0.314164 0.20281 0.414501
21227 1 0.285679 0.86528 0.414533
21226 1 0.299932 0.541306 0.39016
21224 1 0.271437 0.203651 0.390189
21222 1 0.314164 0.70281 0.414501
21221 1 0.285679 0.36528 0.414533
21220 1 0.299932 0.0413063 0.39016
21218 1 0.271437 0.703651 0.390189
21790 1 0.385362 0.541469 0.438776
21788 1 0.356882 0.201403 0.438814
21787 1 0.328408 0.863049 0.438851
21784 1 0.385362 0.0414696 0.438776
21782 1 0.356882 0.701403 0.438814
21781 1 0.328408 0.363049 0.438851
21239 1 0.371154 0.881451 0.414443
21238 1 0.385479 0.561314 0.39011
21237 1 0.342654 0.541387 0.41447
21236 1 0.356946 0.219725 0.390116
21235 1 0.328433 0.879887 0.390135
21233 1 0.371154 0.38145 0.414443
21232 1 0.385479 0.0613141 0.39011
21231 1 0.342654 0.0413872 0.41447
21230 1 0.356946 0.719725 0.390116
21229 1 0.328433 0.379888 0.390135
21800 1 0.442408 0.232081 0.438693
21799 1 0.413859 0.884242 0.438736
21794 1 0.442407 0.732082 0.438693
21793 1 0.413859 0.384244 0.438736
21249 1 0.428243 0.56941 0.414424
21248 1 0.44266 0.252851 0.390173
21247 1 0.414047 0.905371 0.390127
21243 1 0.428243 0.0694087 0.414424
21242 1 0.44266 0.752852 0.390173
21241 1 0.414046 0.405371 0.390127
21240 1 0.399676 0.22371 0.414425
21234 1 0.399676 0.72371 0.414425
21802 1 0.471123 0.589788 0.438734
21796 1 0.471123 0.0897893 0.438734
21252 1 0.485624 0.278177 0.414538
21251 1 0.45689 0.920623 0.414468
21250 1 0.47132 0.604254 0.390237
21246 1 0.485624 0.778175 0.414538
21245 1 0.45689 0.420622 0.414468
21244 1 0.47132 0.104255 0.390237
21253 1 0.5 0.458334 0.390266
21805 1 0.5 0.458335 0.438822
21744 1 0.0578625 0.172509 0.463454
21743 3 0.0289429 0.839413 0.463443
21741 3 0.000393975 0.505733 0.463443
21738 1 0.0578625 0.672509 0.463454
21737 3 0.0289429 0.339412 0.463443
21735 3 0.000393975 0.0057336 0.463443
22286 3 0.0146684 0.668525 0.487814
22288 1 0.0434888 0.00116992 0.48781
22292 3 0.0146684 0.168525 0.487814
22294 1 0.0434888 0.50117 0.48781
21755 1 0.114781 0.840655 0.463401
21753 1 0.0862969 0.506423 0.46342
21749 1 0.114781 0.340655 0.463401
21747 1 0.0862969 0.00642314 0.46342
22297 1 0.0720474 0.334868 0.4878
22298 1 0.100556 0.668636 0.487776
22300 1 0.129052 0.00254667 0.487757
22303 1 0.0720474 0.834868 0.4878
22304 1 0.100556 0.168636 0.487776
22306 1 0.129052 0.502547 0.487757
21765 1 0.171772 0.509513 0.463366
21759 1 0.171772 0.00951297 0.463366
21756 1 0.143275 0.175038 0.463384
21750 1 0.143275 0.675038 0.463384
22309 1 0.157554 0.336553 0.487739
22310 1 0.186056 0.670596 0.487721
22315 1 0.157554 0.836553 0.487739
22316 1 0.186056 0.170596 0.487721
21777 1 0.257248 0.513863 0.4633
21771 1 0.257248 0.0138627 0.4633
21768 1 0.22876 0.178873 0.463324
21767 1 0.200267 0.84411 0.463346
21762 1 0.22876 0.678873 0.463324
21761 1 0.200267 0.34411 0.463346
22312 1 0.214556 0.00468145 0.487702
22318 1 0.214556 0.504681 0.487702
22321 1 0.243053 0.338838 0.487683
22327 1 0.243053 0.838838 0.487683
21780 1 0.314206 0.184996 0.463245
21779 1 0.285731 0.849185 0.463274
21774 1 0.314206 0.684996 0.463245
21773 1 0.285731 0.349185 0.463274
22322 1 0.271545 0.673105 0.487662
22324 1 0.300031 0.00756118 0.48764
22328 1 0.271545 0.173105 0.487662
22330 1 0.300031 0.507561 0.48764
21791 1 0.37113 0.859226 0.463174
21789 1 0.342673 0.521537 0.463212
21785 1 0.37113 0.359226 0.463174
21783 1 0.342673 0.021537 0.463212
22333 1 0.328509 0.342313 0.487617
22334 1 0.356973 0.677559 0.487592
22336 1 0.385415 0.0136068 0.487562
22339 1 0.328509 0.842313 0.487617
22340 1 0.356973 0.177559 0.487592
22342 1 0.385415 0.513606 0.487562
21801 1 0.42802 0.541554 0.463054
21795 1 0.42802 0.0415534 0.463054
21792 1 0.399577 0.198779 0.463125
21786 1 0.399577 0.698778 0.463125
22345 1 0.413816 0.351019 0.48752
22346 1 0.442175 0.691075 0.487457
22351 1 0.413816 0.851019 0.48752
22352 1 0.442175 0.191073 0.487457
21804 1 0.485424 0.262706 0.463013
21803 1 0.456533 0.892103 0.462937
21798 1 0.485424 0.762705 0.463013
21797 1 0.456533 0.392101 0.462937
22348 1 0.470624 0.0416147 0.487303
22354 1 0.470624 0.541614 0.487303
22357 1 0.5 0.458334 0.487355
22287 3 0.000393975 0.997868 0.512186
22289 3 0.0289429 0.331071 0.512186
22290 1 0.057866 0.663465 0.512165
22293 3 0.000393975 0.497867 0.512186
22295 3 0.0289429 0.831072 0.512186
22296 1 0.057866 0.163465 0.512165
22838 3 0.0146684 0.66043 0.536557
22839 3 0.000393975 0.990044 0.560928
22840 1 0.0434977 0.992517 0.536536
22841 3 0.0289429 0.32278 0.560928
22842 1 0.0578903 0.654741 0.560864
22844 3 0.0146684 0.16043 0.536557
22845 3 0.000393975 0.490043 0.560928
22846 1 0.0434977 0.492517 0.536536
22847 3 0.0289429 0.82278 0.560928
22848 1 0.0578903 0.154741 0.560864
22299 1 0.0863272 0.996881 0.512146
22301 1 0.114828 0.33044 0.512129
22305 1 0.0863272 0.496881 0.512146
22307 1 0.114828 0.83044 0.512129
22849 1 0.07207 0.325681 0.53651
22850 1 0.100592 0.65881 0.536496
22851 1 0.0863535 0.987525 0.56086
22852 1 0.1291 0.991962 0.536481
22853 1 0.11486 0.320369 0.560849
22855 1 0.07207 0.825681 0.53651
22856 1 0.100592 0.15881 0.536496
22857 1 0.0863535 0.487525 0.56086
22858 1 0.1291 0.491962 0.536481
22859 1 0.11486 0.820369 0.560849
22302 1 0.143333 0.664021 0.512111
22308 1 0.143333 0.164021 0.512111
22311 1 0.171841 0.997563 0.512094
22317 1 0.171841 0.497563 0.512094
22854 1 0.143379 0.653139 0.560832
22860 1 0.143379 0.153139 0.560832
22861 1 0.157616 0.325074 0.536464
22862 1 0.186133 0.658053 0.536447
22863 1 0.171904 0.985705 0.560813
22867 1 0.157616 0.825074 0.536464
22868 1 0.186133 0.158053 0.536447
22869 1 0.171904 0.485705 0.560813
22313 1 0.200349 0.331052 0.512076
22314 1 0.228856 0.664471 0.51206
22319 1 0.200349 0.831052 0.512076
22320 1 0.228856 0.164471 0.51206
22323 1 0.257361 0.997817 0.512044
22329 1 0.257361 0.497817 0.512044
22864 1 0.21465 0.990857 0.536431
22865 1 0.200431 0.318019 0.560798
22866 1 0.228957 0.65002 0.560787
22870 1 0.21465 0.490857 0.536432
22871 1 0.200431 0.818019 0.560798
22872 1 0.228957 0.15002 0.560787
22873 1 0.243167 0.323444 0.536418
22875 1 0.257483 0.981626 0.560779
22879 1 0.243167 0.823444 0.536418
22881 1 0.257483 0.481626 0.560779
22325 1 0.285862 0.331081 0.512028
22326 1 0.314358 0.664256 0.512014
22331 1 0.285862 0.831081 0.512028
22332 1 0.314358 0.164256 0.512015
22874 1 0.271681 0.655757 0.536408
22876 1 0.300194 0.987707 0.5364
22877 1 0.286006 0.312718 0.560777
22878 1 0.314528 0.6431 0.560781
22880 1 0.271681 0.155757 0.536408
22882 1 0.300194 0.487707 0.5364
22883 1 0.286006 0.812718 0.560777
22884 1 0.314528 0.1431 0.560781
22335 1 0.342846 0.997317 0.512004
22337 1 0.371323 0.330157 0.511997
22341 1 0.342846 0.497317 0.512004
22343 1 0.371323 0.830157 0.511997
22885 1 0.328703 0.319143 0.536399
22886 1 0.357209 0.649741 0.536407
22887 1 0.343048 0.972419 0.560797
22888 1 0.38571 0.978822 0.536433
22889 1 0.371564 0.300034 0.560833
22891 1 0.328703 0.819144 0.536399
22892 1 0.357209 0.14974 0.536407
22893 1 0.343048 0.472419 0.560797
22894 1 0.38571 0.478822 0.536433
22895 1 0.371564 0.800034 0.560833
22338 1 0.399779 0.662463 0.511998
22344 1 0.399779 0.162463 0.511997
22347 1 0.428211 0.993371 0.512016
22353 1 0.428211 0.493372 0.512016
22890 1 0.400076 0.624804 0.560905
22896 1 0.400076 0.124805 0.560905
22897 1 0.414209 0.30497 0.536495
22898 1 0.442728 0.624879 0.536626
22899 1 0.428585 0.944715 0.561043
22903 1 0.414209 0.80497 0.536494
22904 1 0.442728 0.12488 0.536626
22905 1 0.428585 0.444715 0.561043
22349 1 0.456689 0.320516 0.512085
22350 1 0.485359 0.624952 0.512359
22355 1 0.456689 0.820516 0.512085
22356 1 0.485359 0.124952 0.512359
22900 1 0.471265 0.929321 0.536976
22901 1 0.457088 0.256398 0.561326
22902 1 0.485642 0.558796 0.561682
22906 1 0.471265 0.429319 0.536976
22907 1 0.457087 0.756398 0.561326
22908 1 0.485642 0.0587977 0.561682
22909 1 0.5 0.208332 0.537468
23390 3 0.0146684 0.652462 0.585299
23391 3 0.000393975 0.982407 0.609671
23392 1 0.0435255 0.984274 0.5852
23393 3 0.0289429 0.314711 0.609671
23394 1 0.0578499 0.646607 0.609574
23396 3 0.0146684 0.152463 0.585299
23397 3 0.000393975 0.482407 0.609671
23398 1 0.0435255 0.484274 0.5852
23399 3 0.0289429 0.814712 0.609671
23400 1 0.0578499 0.146607 0.609574
23401 1 0.0720753 0.316873 0.585225
23402 1 0.100599 0.649358 0.585217
23403 1 0.0863026 0.978793 0.609591
23404 1 0.129122 0.981778 0.585198
23405 1 0.114848 0.311008 0.609558
23407 1 0.0720753 0.816873 0.585225
23408 1 0.100599 0.149358 0.585217
23409 1 0.0863026 0.478793 0.609591
23410 1 0.129122 0.481778 0.585198
23411 1 0.114848 0.811008 0.609558
23406 1 0.143398 0.642962 0.609533
23412 1 0.143398 0.142962 0.609533
23413 1 0.15766 0.314015 0.585176
23414 1 0.186197 0.64594 0.58516
23415 1 0.17195 0.974569 0.609515
23419 1 0.15766 0.814015 0.585176
23420 1 0.186197 0.14594 0.58516
23421 1 0.17195 0.474569 0.609515
23416 1 0.214732 0.977495 0.58515
23417 1 0.200494 0.305782 0.609507
23418 1 0.229033 0.636535 0.609505
23422 1 0.214732 0.477495 0.58515
23423 1 0.200494 0.805782 0.609507
23424 1 0.229033 0.136535 0.609505
23425 1 0.243266 0.308598 0.585145
23427 1 0.257567 0.966723 0.609509
23431 1 0.243266 0.808598 0.585145
23433 1 0.257567 0.466723 0.609509
23426 1 0.271796 0.639132 0.585145
23428 1 0.300324 0.968899 0.585153
23429 1 0.286097 0.296174 0.60952
23430 1 0.314623 0.62464 0.609543
23432 1 0.271796 0.139132 0.585145
23434 1 0.300324 0.468899 0.585153
23435 1 0.286097 0.796174 0.60952
23436 1 0.314623 0.12464 0.609543
23437 1 0.328849 0.297595 0.585174
23438 1 0.357369 0.624719 0.585213
23439 1 0.343144 0.951757 0.609583
23440 1 0.385883 0.949492 0.585285
23441 1 0.371657 0.277017 0.609649
23443 1 0.328849 0.797595 0.585174
23444 1 0.357369 0.124719 0.585213
23445 1 0.343144 0.451757 0.609583
23446 1 0.385883 0.449492 0.585285
23447 1 0.371657 0.777017 0.609649
23442 1 0.400162 0.599781 0.609754
23448 1 0.400162 0.0997813 0.609754
23449 1 0.41439 0.270785 0.585406
23450 1 0.442889 0.587231 0.585611
23451 1 0.428662 0.919452 0.609908
23455 1 0.41439 0.770786 0.585406
23456 1 0.442889 0.0872296 0.585611
23457 1 0.428662 0.419452 0.609908
23452 1 0.471408 0.89877 0.585865
23453 1 0.457172 0.236094 0.610093
23454 1 0.485718 0.551019 0.610219
23458 1 0.471408 0.398772 0.585865
23459 1 0.457172 0.736095 0.610093
23460 1 0.485718 0.0510179 0.610219
23467 1 0.5 0.708332 0.585969
23942 3 0.0146684 0.644771 0.634042
23944 3 0.0432173 0.976811 0.634042
23945 3 0.0289429 0.307014 0.658413
23946 3 0.0574918 0.638782 0.658413
23948 3 0.0146684 0.144772 0.634042
23950 3 0.0432173 0.47681 0.634042
23951 3 0.0289429 0.807014 0.658413
23952 3 0.0574918 0.138782 0.658413
24496 3 0.0432173 0.96916 0.682784
24502 3 0.0432173 0.469159 0.682784
23953 1 0.0719875 0.308873 0.633942
23954 1 0.100543 0.640849 0.633916
23955 1 0.0862923 0.971045 0.658238
23956 1 0.129126 0.972498 0.633879
23957 1 0.114862 0.302531 0.658216
23959 1 0.0719875 0.808873 0.633942
23960 1 0.100543 0.140849 0.633916
23961 1 0.0862923 0.471045 0.658238
23962 1 0.129126 0.472498 0.633879
23963 1 0.114862 0.802531 0.658216
24505 1 0.0718963 0.302047 0.682662
24506 1 0.100662 0.632872 0.682531
24508 1 0.129238 0.963714 0.682508
24511 1 0.0718963 0.802047 0.682662
24512 1 0.100662 0.132872 0.682531
24514 1 0.129238 0.463714 0.682508
23958 1 0.143448 0.633597 0.658193
23964 1 0.143448 0.133597 0.658193
23965 1 0.157694 0.303825 0.633861
23966 1 0.186249 0.634756 0.633857
23967 1 0.172005 0.964287 0.6582
23971 1 0.157694 0.803825 0.633861
23972 1 0.186249 0.134756 0.633857
23973 1 0.172005 0.464287 0.6582
24517 1 0.157782 0.294215 0.682535
24518 1 0.186304 0.624423 0.682566
24523 1 0.157782 0.794215 0.682535
24524 1 0.186304 0.124423 0.682566
23968 1 0.21479 0.965262 0.633861
23969 1 0.200545 0.294612 0.658213
23970 1 0.229076 0.624516 0.658227
23974 1 0.21479 0.465262 0.633861
23975 1 0.200545 0.794612 0.658213
23976 1 0.229076 0.124516 0.658227
23977 1 0.243325 0.295256 0.633869
23979 1 0.257603 0.953854 0.658244
23983 1 0.243325 0.795256 0.633869
23985 1 0.257603 0.453854 0.658244
24520 1 0.214824 0.954331 0.682586
24526 1 0.214824 0.454331 0.682586
24529 1 0.243345 0.283764 0.682605
24535 1 0.243345 0.783764 0.682605
23978 1 0.271855 0.624588 0.633883
23980 1 0.30038 0.95305 0.633907
23981 1 0.286125 0.282444 0.658268
23982 1 0.314643 0.610085 0.658304
23984 1 0.271855 0.124588 0.633883
23986 1 0.30038 0.45305 0.633907
23987 1 0.286125 0.782444 0.658268
23988 1 0.314643 0.110085 0.658304
24530 1 0.271864 0.612556 0.682628
24532 1 0.30038 0.940545 0.682661
24536 1 0.271864 0.112556 0.682628
24538 1 0.30038 0.440545 0.682661
23989 1 0.3289 0.280381 0.633946
23990 1 0.357412 0.606249 0.634006
23991 1 0.343156 0.936554 0.658359
23992 1 0.385917 0.930284 0.634096
23993 1 0.371662 0.261631 0.658435
23995 1 0.3289 0.780381 0.633946
23996 1 0.357412 0.106249 0.634006
23997 1 0.343156 0.436554 0.658359
23998 1 0.385917 0.430284 0.634096
23999 1 0.371662 0.761631 0.658435
24541 1 0.328892 0.267572 0.682709
24542 1 0.3574 0.593501 0.682775
24544 1 0.385906 0.918247 0.682859
24547 1 0.328892 0.767572 0.682709
24548 1 0.3574 0.0935007 0.682775
24550 1 0.385906 0.418247 0.682859
23994 1 0.400166 0.585163 0.658536
24000 1 0.400166 0.0851625 0.658536
24001 1 0.414418 0.252197 0.634218
24002 1 0.442926 0.572049 0.634362