ITEM: TIMESTEP
42
ITEM: NUMBER OF ATOMS
2330
ITEM: BOX BOUNDS ss pp ss
-4.0826385615000000e+01 4.0826373533999998e+01
-4.1208122699999999e-01 4.5329187729999996e+00
-4.0576341511000003e+01 4.0239854181000005e+01
ITEM: ATOMS id type xs ys zs
16806 3 0.314432 0.761848 0.0253797
16812 3 0.314432 0.261848 0.0253797
17354 3 0.271609 0.754084 0.0503597
17356 3 0.300158 0.091551 0.0503597
17360 3 0.271609 0.254085 0.0503597
17362 3 0.300158 0.59155 0.0503597
16815 3 0.342981 0.099435 0.0253797
16816 3 0.385804 0.107012 0.00039968
16817 3 0.37153 0.437178 0.0253797
16821 3 0.342981 0.599435 0.0253797
16822 3 0.385804 0.607012 0.00039968
16823 3 0.37153 0.937179 0.0253797
17365 3 0.328707 0.429218 0.0503597
17366 1 0.35734 0.7666 0.0503944
17368 1 0.385934 0.106099 0.0506936
17371 3 0.328707 0.929218 0.0503597
17372 1 0.35734 0.2666 0.0503944
17374 1 0.385934 0.606099 0.0506936
16818 3 0.400079 0.775059 0.0253797
16824 3 0.400079 0.27506 0.0253797
16825 3 0.414353 0.444741 0.00039968
16826 3 0.442902 0.782556 0.00039968
16827 3 0.428628 0.113053 0.0253797
16831 3 0.414353 0.944741 0.00039968
16832 3 0.442902 0.282557 0.00039968
16833 3 0.428628 0.613053 0.0253797
17377 1 0.414482 0.443762 0.050715
17378 1 0.442952 0.781644 0.05058
17383 1 0.414482 0.943762 0.050715
17384 1 0.442952 0.281644 0.05058
16828 3 0.471451 0.12043 0.00039968
16829 3 0.457177 0.45113 0.0253797
16830 3 0.485726 0.78926 0.0253797
16834 3 0.471451 0.62043 0.00039968
16835 3 0.457177 0.951131 0.0253797
16836 3 0.485726 0.289261 0.0253797
17380 1 0.471471 0.11995 0.0505611
17386 1 0.471471 0.61995 0.0505611
17894 3 0.185962 0.738473 0.10032
17895 3 0.171687 0.0675561 0.1253
17900 3 0.185962 0.238473 0.10032
17901 3 0.171687 0.567556 0.1253
17346 3 0.228785 0.746242 0.0753397
17352 3 0.228785 0.246243 0.0753397
17355 3 0.257334 0.0835022 0.0753397
17361 3 0.257334 0.583502 0.0753397
17896 3 0.214511 0.07545 0.10032
17897 3 0.200236 0.404454 0.1253
17898 1 0.228982 0.74228 0.125528
17902 3 0.214511 0.57545 0.10032
17903 3 0.200236 0.904454 0.1253
17904 1 0.228982 0.24228 0.125528
17905 3 0.24306 0.412682 0.10032
17907 1 0.257539 0.0799606 0.125624
17911 3 0.24306 0.912683 0.10032
17913 1 0.257539 0.579961 0.125624
17357 3 0.285883 0.420997 0.0753397
17358 1 0.314526 0.759497 0.0756438
17363 3 0.285883 0.920997 0.0753397
17364 1 0.314526 0.259497 0.0756438
17906 1 0.271744 0.751126 0.100565
17908 1 0.30033 0.088871 0.100676
17909 1 0.286026 0.417755 0.125562
17910 1 0.314569 0.755953 0.125561
17912 1 0.271744 0.251126 0.100565
17914 1 0.30033 0.588871 0.100676
17915 1 0.286026 0.917755 0.125562
17916 1 0.314569 0.255953 0.125561
17367 1 0.343146 0.0972481 0.0756384
17369 1 0.371654 0.435392 0.0756051
17373 1 0.343146 0.597248 0.0756384
17375 1 0.371654 0.935392 0.0756051
17917 1 0.328846 0.426834 0.100578
17918 1 0.357376 0.765041 0.100556
17919 1 0.343099 0.0941805 0.125536
17920 1 0.385905 0.103465 0.100575
17921 1 0.371627 0.432717 0.125531
17923 1 0.328846 0.926834 0.100578
17924 1 0.357376 0.265041 0.100556
17925 1 0.343099 0.594181 0.125536
17926 1 0.385905 0.603465 0.100575
17927 1 0.371627 0.932717 0.125531
17370 1 0.400195 0.773961 0.0756362
17376 1 0.400195 0.273961 0.0756362
17379 1 0.428722 0.11226 0.0755838
17385 1 0.428722 0.61226 0.0755838
17922 1 0.400162 0.771539 0.125535
17928 1 0.400162 0.271539 0.125535
17929 1 0.414447 0.442153 0.100579
17930 1 0.442973 0.780818 0.100545
17931 1 0.428697 0.110548 0.12553
17935 1 0.414447 0.942153 0.100579
17936 1 0.442973 0.280818 0.100545
17937 1 0.428697 0.610548 0.12553
17381 1 0.457227 0.45051 0.0755254
17382 1 0.485741 0.789035 0.0755083
17387 1 0.457227 0.95051 0.0755254
17388 1 0.485741 0.289035 0.0755083
17932 1 0.471486 0.119509 0.100516
17933 1 0.457223 0.449611 0.125514
17934 1 0.485742 0.788746 0.125504
17938 1 0.471486 0.619509 0.100516
17939 1 0.457223 0.949611 0.125514
17940 1 0.485742 0.288746 0.125504
18436 3 0.128864 0.0599638 0.15028
18437 3 0.11459 0.388898 0.17526
18442 3 0.128864 0.559963 0.15028
18443 3 0.11459 0.888898 0.17526
18438 3 0.143139 0.725265 0.17526
18444 3 0.143139 0.225265 0.17526
18445 3 0.157413 0.39648 0.15028
18446 1 0.185925 0.732359 0.150357
18447 1 0.171886 0.062628 0.175517
18451 3 0.157413 0.89648 0.15028
18452 1 0.185925 0.232359 0.150357
18453 1 0.171886 0.562628 0.175517
18448 1 0.214659 0.0707364 0.150557
18449 1 0.200363 0.399173 0.175467
18450 1 0.228881 0.736753 0.175448
18454 1 0.214659 0.570736 0.150557
18455 1 0.200363 0.899173 0.175467
18456 1 0.228881 0.236753 0.175448
18457 1 0.243183 0.408488 0.150512
18459 1 0.257428 0.0745645 0.175452
18463 1 0.243183 0.908488 0.150512
18465 1 0.257428 0.574565 0.175452
18458 1 0.271737 0.74644 0.150521
18460 1 0.300273 0.0844795 0.150509
18461 1 0.285971 0.412705 0.175452
18462 1 0.314513 0.7511 0.175447
18464 1 0.271737 0.24644 0.150521
18466 1 0.300273 0.584479 0.150509
18467 1 0.285971 0.912705 0.175452
18468 1 0.314513 0.2511 0.175447
18469 1 0.328811 0.422895 0.150498
18470 1 0.357345 0.761519 0.150491
18471 1 0.343054 0.0898457 0.175448
18472 1 0.38588 0.100478 0.150496
18473 1 0.371593 0.428956 0.175454
18475 1 0.328811 0.922895 0.150498
18476 1 0.357345 0.261519 0.150491
18477 1 0.343054 0.589846 0.175448
18478 1 0.38588 0.600478 0.150496
18479 1 0.371593 0.928956 0.175454
18474 1 0.400132 0.768433 0.175463
18480 1 0.400132 0.268433 0.175463
18481 1 0.414417 0.439742 0.150502
18482 1 0.44295 0.779189 0.150501
18483 1 0.42867 0.108212 0.175471
18487 1 0.414417 0.939742 0.150502
18488 1 0.44295 0.279189 0.150501
18489 1 0.42867 0.608212 0.175471
18484 1 0.471477 0.118738 0.150496
18485 1 0.457205 0.448192 0.175476
18486 1 0.485735 0.788275 0.175477
18490 1 0.471477 0.618738 0.150496
18491 1 0.457205 0.948192 0.175476
18492 1 0.485735 0.288275 0.175477
18986 3 0.100315 0.717746 0.20024
18987 3 0.0860407 0.0465326 0.22522
18988 3 0.128864 0.0539348 0.20024
18989 3 0.11459 0.382518 0.22522
18992 3 0.100315 0.217746 0.20024
18993 3 0.0860407 0.546532 0.22522
18994 3 0.128864 0.553934 0.20024
18995 3 0.11459 0.882518 0.22522
18990 1 0.143278 0.718906 0.225352
18996 1 0.143278 0.218906 0.225352
18997 1 0.15763 0.390751 0.200507
18998 1 0.186108 0.727759 0.200443
18999 1 0.17179 0.0558777 0.225376
19003 1 0.15763 0.890751 0.200507
19004 1 0.186108 0.227759 0.200443
19005 1 0.17179 0.555878 0.225376
19000 1 0.214611 0.0648554 0.2004
19001 1 0.200324 0.392905 0.225364
19002 1 0.228842 0.730252 0.225337
19006 1 0.214611 0.564855 0.2004
19007 1 0.200324 0.892905 0.225364
19008 1 0.228842 0.230252 0.225337
19009 1 0.243133 0.402487 0.200388
19011 1 0.257371 0.0680396 0.225329
19015 1 0.243133 0.902487 0.200388
19017 1 0.257371 0.56804 0.225329
19010 1 0.271668 0.740492 0.200387
19012 1 0.300211 0.0788853 0.20039
19013 1 0.285909 0.406305 0.225328
19014 1 0.314451 0.745061 0.225333
19016 1 0.271668 0.240492 0.200387
19018 1 0.300211 0.578885 0.20039
19019 1 0.285909 0.906305 0.225328
19020 1 0.314451 0.245061 0.225333
19021 1 0.328755 0.417683 0.200394
19022 1 0.357298 0.756913 0.200402
19023 1 0.342996 0.084326 0.225343
19024 1 0.385842 0.096575 0.200416
19025 1 0.371543 0.424111 0.225359
19027 1 0.328755 0.917683 0.200394
19028 1 0.357298 0.256913 0.200402
19029 1 0.342996 0.584326 0.225343
19030 1 0.385842 0.596575 0.200416
19031 1 0.371543 0.924111 0.225359
19026 1 0.400091 0.764411 0.225379
19032 1 0.400091 0.264411 0.225379
19033 1 0.414384 0.436641 0.200431
19034 1 0.442926 0.777034 0.200444
19035 1 0.428639 0.105173 0.2254
19039 1 0.414384 0.936641 0.200431
19040 1 0.442926 0.277034 0.200444
19041 1 0.428639 0.605173 0.2254
19036 1 0.471464 0.117631 0.200452
19037 1 0.457185 0.446291 0.225418
19038 1 0.485729 0.787628 0.225427
19042 1 0.471464 0.617631 0.200452
19043 1 0.457185 0.946291 0.225418
19044 1 0.485729 0.287628 0.225427
19051 1 0.5 0.958334 0.200455
19530 3 0.0574918 0.704039 0.27518
19536 3 0.0574918 0.20404 0.27518
20080 3 0.0432173 0.0328207 0.30016
20086 3 0.0432173 0.53282 0.30016
19537 3 0.0717663 0.375286 0.2502
19538 3 0.100315 0.711047 0.2502
19539 1 0.0860648 0.0396232 0.275193
19540 1 0.129 0.0471999 0.250296
19541 1 0.114736 0.375492 0.275261
19543 3 0.0717663 0.875287 0.2502
19544 3 0.100315 0.211047 0.2502
19545 1 0.0860648 0.539623 0.275193
19546 1 0.129 0.5472 0.250296
19547 1 0.114736 0.875492 0.275261
20089 3 0.0717663 0.368081 0.30016
20090 1 0.10047 0.703807 0.300233
20092 1 0.128941 0.0396806 0.30019
20095 3 0.0717663 0.868081 0.30016
20096 1 0.10047 0.203807 0.300233
20098 1 0.128941 0.539681 0.30019
19542 1 0.143204 0.711684 0.27523
19548 1 0.143204 0.211684 0.27523
19549 1 0.15748 0.38372 0.250286
19550 1 0.186018 0.720679 0.250301
19551 1 0.171725 0.0482762 0.275234
19555 1 0.15748 0.88372 0.250286
19556 1 0.186018 0.220679 0.250301
19557 1 0.171725 0.548276 0.275234
20101 1 0.157454 0.375895 0.300184
20102 1 0.185966 0.712516 0.300179
20107 1 0.157454 0.875895 0.300184
20108 1 0.185966 0.212516 0.300179
19552 1 0.214545 0.057856 0.250288
19553 1 0.200249 0.385241 0.275232
19554 1 0.228777 0.722561 0.275223
19558 1 0.214545 0.557856 0.250288
19559 1 0.200249 0.885241 0.275232
19560 1 0.228777 0.222561 0.275223
19561 1 0.243074 0.395403 0.250275
19563 1 0.257305 0.0603276 0.275213
19567 1 0.243074 0.895403 0.250275
19569 1 0.257305 0.560328 0.275213
20104 1 0.214487 0.0495439 0.300172
20110 1 0.214487 0.549544 0.300172
20113 1 0.243009 0.387006 0.300161
20119 1 0.243009 0.887006 0.300161
19562 1 0.271606 0.733438 0.250269
19564 1 0.300144 0.0720277 0.250269
19565 1 0.285837 0.398649 0.275207
19566 1 0.314377 0.737613 0.27521
19568 1 0.271606 0.233439 0.250269
19570 1 0.300144 0.572028 0.250269
19571 1 0.285837 0.898649 0.275207
19572 1 0.314377 0.237613 0.27521
20114 1 0.271534 0.725 0.300151
20116 1 0.300066 0.0636251 0.300146
20120 1 0.271534 0.225 0.300151
20122 1 0.300066 0.563625 0.300146
19573 1 0.328688 0.411207 0.250277
19574 1 0.357236 0.75101 0.250293
19575 1 0.342923 0.0772888 0.275222
19576 1 0.385788 0.0914566 0.250316
19577 1 0.371477 0.41774 0.275243
19579 1 0.328688 0.911207 0.250277
19580 1 0.357236 0.25101 0.250293
19581 1 0.342923 0.577289 0.275222
19582 1 0.385788 0.591457 0.250316
19583 1 0.371477 0.91774 0.275243
20125 1 0.328607 0.403009 0.30015
20126 1 0.357156 0.743279 0.300165
20128 1 0.385716 0.0845243 0.300193
20131 1 0.328607 0.903009 0.30015
20132 1 0.357156 0.243279 0.300165
20134 1 0.385716 0.584524 0.300193
20144 1 0.442853 0.269998 0.300271
20143 1 0.414282 0.926789 0.300231
19578 1 0.400035 0.758994 0.275274
19584 1 0.400035 0.258994 0.275274
19585 1 0.414342 0.432523 0.250344
19586 1 0.442896 0.774129 0.25037
19587 1 0.428596 0.101011 0.275308
19591 1 0.414342 0.932523 0.250344
19592 1 0.442896 0.274129 0.25037
19593 1 0.428596 0.601011 0.275308
20137 1 0.414282 0.426789 0.300231
20138 1 0.442853 0.769997 0.300271
20146 1 0.471427 0.613955 0.300302
19588 1 0.471449 0.116131 0.250389
19589 1 0.457158 0.443659 0.275338
19590 1 0.485719 0.786727 0.275355
19594 1 0.471449 0.616131 0.250389
19595 1 0.457158 0.943659 0.275338
19596 1 0.485719 0.286726 0.275355
20140 1 0.471427 0.113954 0.300302
19603 1 0.5 0.958334 0.250396
20155 1 0.5 0.958334 0.300314
20640 1 0.0578067 0.188273 0.375143
20639 3 0.0289429 0.854082 0.3751
20638 3 0.0432173 0.525313 0.35012
20636 3 0.0146684 0.190582 0.35012
20634 1 0.0578067 0.688273 0.375143
20633 3 0.0289429 0.354082 0.3751
20632 3 0.0432173 0.0253133 0.35012
20630 3 0.0146684 0.690581 0.35012
20081 3 0.0289429 0.361658 0.32514
20082 3 0.0574918 0.696656 0.32514
20087 3 0.0289429 0.861659 0.32514
20088 3 0.0574918 0.196656 0.32514
20651 1 0.114745 0.858776 0.375102
20650 1 0.128971 0.53107 0.350117
20649 1 0.0862793 0.523504 0.375123
20648 1 0.100495 0.195439 0.35013
20647 1 0.0721008 0.860187 0.350174
20645 1 0.114745 0.358776 0.375102
20644 1 0.128971 0.0310701 0.350117
20643 1 0.0862793 0.0235045 0.375123
20642 1 0.100495 0.695439 0.35013
20641 1 0.0721008 0.360187 0.350174
20091 1 0.0862221 0.0320502 0.325194
20093 1 0.114696 0.367643 0.325155
20097 1 0.0862221 0.53205 0.325194
20099 1 0.114696 0.867643 0.325155
20661 1 0.171704 0.53021 0.375069
20660 1 0.185951 0.203291 0.350093
20659 1 0.157455 0.867011 0.350104
20655 1 0.171704 0.03021 0.375069
20654 1 0.185951 0.703291 0.350093
20653 1 0.157455 0.367011 0.350104
20652 1 0.143217 0.194323 0.375084
20646 1 0.143217 0.694323 0.375084
20094 1 0.1432 0.70351 0.325145
20100 1 0.1432 0.20351 0.325145
20103 1 0.171702 0.0397635 0.325136
20109 1 0.171702 0.539763 0.325136
20673 1 0.25719 0.540225 0.375009
20671 1 0.242957 0.877121 0.350061
20667 1 0.25719 0.0402253 0.375009
20665 1 0.242957 0.377121 0.350061
20664 1 0.228691 0.203082 0.375031
20663 1 0.200196 0.866439 0.375051
20662 1 0.214452 0.539975 0.350078
20658 1 0.228691 0.703082 0.375031
20657 1 0.200196 0.366439 0.375051
20656 1 0.214452 0.039975 0.350078
20105 1 0.200211 0.376427 0.325127
20106 1 0.228723 0.713526 0.325115
20111 1 0.200211 0.876427 0.325127
20112 1 0.228723 0.213526 0.325115
20115 1 0.257239 0.0511246 0.325101
20121 1 0.257239 0.551125 0.325101
20676 1 0.314205 0.216591 0.374968
20675 1 0.285694 0.877999 0.374987
20674 1 0.299985 0.553236 0.350028
20672 1 0.271467 0.214824 0.350043
20670 1 0.314205 0.716591 0.374968
20669 1 0.285694 0.377999 0.374987
20668 1 0.299985 0.0532362 0.350028
20666 1 0.271467 0.714824 0.350043
20117 1 0.285761 0.389329 0.325089
20118 1 0.314291 0.728282 0.325083
20123 1 0.285761 0.889329 0.325089
20124 1 0.314291 0.228282 0.325083
20687 1 0.371267 0.897287 0.374956
20686 1 0.385612 0.574806 0.350045
20685 1 0.342728 0.55624 0.374956
20684 1 0.357053 0.232973 0.350024
20683 1 0.328512 0.892541 0.35002
20681 1 0.371267 0.397287 0.374956
20680 1 0.385612 0.0748054 0.350045
20679 1 0.342727 0.0562404 0.374956
20678 1 0.357053 0.732973 0.350024
20677 1 0.328512 0.392541 0.35002
20127 1 0.342832 0.0681608 0.325088
20129 1 0.371386 0.409142 0.325107
20133 1 0.342832 0.568161 0.325088
20135 1 0.371386 0.909141 0.325107
20697 1 0.428425 0.585353 0.37502
20696 1 0.442785 0.26359 0.350136
20695 1 0.41419 0.918301 0.350084
20691 1 0.428425 0.085354 0.37502
20690 1 0.442785 0.76359 0.350136
20689 1 0.41419 0.418301 0.350084
20688 1 0.399831 0.24017 0.374977
20682 1 0.399831 0.740171 0.374977
20145 1 0.428531 0.594926 0.325186
20130 1 0.399953 0.751375 0.325141
20136 1 0.399953 0.251374 0.325141
20139 1 0.428531 0.094926 0.325186
20700 1 0.48568 0.282981 0.37512
20699 1 0.457045 0.933107 0.375078
20698 1 0.47139 0.610482 0.350182
20694 1 0.48568 0.782982 0.37512
20693 1 0.457045 0.433108 0.375078
20692 1 0.47139 0.110481 0.350182
20148 1 0.485705 0.285347 0.325258
20147 1 0.457117 0.939696 0.32523
20142 1 0.485705 0.785347 0.325258
20141 1 0.457117 0.439696 0.32523
20707 1 0.5 0.958334 0.3502
21192 1 0.0577965 0.180291 0.425049
21191 3 0.0289429 0.846101 0.42506
21190 1 0.0432607 0.518442 0.400008
21189 3 0.000393975 0.512049 0.42506
21188 3 0.0146684 0.182988 0.40008
21186 1 0.0577965 0.680291 0.425049
21185 3 0.0289429 0.346101 0.42506
21184 1 0.0432607 0.0184424 0.400008
21183 3 0.000393975 0.01205 0.42506
21182 3 0.0146684 0.682988 0.40008
21203 1 0.114734 0.849431 0.425048
21202 1 0.128975 0.521814 0.400068
21201 1 0.0862367 0.514694 0.425047
21200 1 0.100489 0.186731 0.400085
21199 1 0.0719981 0.852004 0.400084
21197 1 0.114734 0.349431 0.425048
21196 1 0.128975 0.0218144 0.400068
21195 1 0.0862367 0.0146939 0.425047
21194 1 0.100489 0.686731 0.400085
21193 1 0.0719981 0.352004 0.400084
21213 1 0.171716 0.519697 0.425018
21212 1 0.185951 0.192998 0.400032
21211 1 0.157463 0.857248 0.400051
21207 1 0.171716 0.0196974 0.425018
21206 1 0.185951 0.692998 0.400032
21205 1 0.157463 0.357248 0.400051
21204 1 0.143225 0.184439 0.425036
21198 1 0.143225 0.684439 0.425036
21225 1 0.257178 0.527477 0.424947
21223 1 0.242932 0.865631 0.399987
21219 1 0.257178 0.0274773 0.424947
21217 1 0.242932 0.365631 0.399987
21216 1 0.228691 0.191146 0.424973
21215 1 0.200204 0.855252 0.424997
21214 1 0.214441 0.529097 0.400011
21210 1 0.228691 0.691146 0.424973
21209 1 0.200204 0.355252 0.424997
21208 1 0.214441 0.0290966 0.400011
21228 1 0.314151 0.202038 0.424887
21227 1 0.285664 0.864377 0.424918
21226 1 0.29992 0.540483 0.399935
21224 1 0.271424 0.202704 0.399961
21222 1 0.314151 0.702038 0.424887
21221 1 0.285664 0.364377 0.424918
21220 1 0.29992 0.0404829 0.399935
21218 1 0.271424 0.702703 0.399961
21239 1 0.371143 0.880929 0.424826
21238 1 0.385473 0.560874 0.399884
21237 1 0.342641 0.54074 0.424856
21236 1 0.356937 0.219155 0.399891
21235 1 0.328423 0.87919 0.39991
21233 1 0.371143 0.38093 0.424826
21232 1 0.385473 0.0608736 0.399884
21231 1 0.342641 0.04074 0.424856
21230 1 0.356937 0.719155 0.399891
21229 1 0.328423 0.37919 0.39991
21249 1 0.428238 0.569121 0.424804
21248 1 0.442658 0.252634 0.399944
21247 1 0.414043 0.905045 0.399899
21243 1 0.428238 0.0691226 0.424804
21242 1 0.442658 0.752633 0.399944
21241 1 0.414043 0.405045 0.399899
21240 1 0.399669 0.223312 0.424806
21234 1 0.399669 0.723313 0.424806
21252 1 0.485623 0.278109 0.424917
21251 1 0.456887 0.920442 0.424847
21250 1 0.471319 0.604141 0.400008
21246 1 0.485623 0.778111 0.424917
21245 1 0.456887 0.420443 0.424847
21244 1 0.471319 0.104139 0.400008
21259 1 0.5 0.958334 0.400036
21744 1 0.057863 0.171098 0.475036
21743 3 0.0289429 0.837854 0.47502
21742 1 0.0435059 0.508559 0.450097
21741 3 0.000393975 0.504262 0.47502
21740 3 0.0146684 0.175081 0.45004
21738 1 0.057863 0.671098 0.475036
21737 3 0.0289429 0.337853 0.47502
21736 1 0.0435059 0.00855898 0.450097
21735 3 0.000393975 0.00426269 0.47502
21734 3 0.0146684 0.675081 0.45004
22286 3 0.0146684 0.667005 0.5
22288 1 0.0434892 0.999704 0.499996
22292 3 0.0146684 0.167005 0.5
22294 1 0.0434892 0.499704 0.499996
21755 1 0.114775 0.839324 0.475
21754 1 0.128995 0.511774 0.450017
21753 1 0.0862962 0.505086 0.47501
21752 1 0.100508 0.177172 0.450024
21751 1 0.0720145 0.842784 0.45003
21749 1 0.114775 0.339324 0.475
21748 1 0.128995 0.0117738 0.450017
21747 1 0.0862962 0.00508617 0.47501
21746 1 0.100508 0.677172 0.450024
21745 1 0.0720145 0.342784 0.45003
22297 1 0.0720499 0.333533 0.499994
22298 1 0.10055 0.667291 0.499986
22300 1 0.129038 0.00119525 0.499977
22303 1 0.0720499 0.833533 0.499994
22304 1 0.10055 0.167291 0.499986
22306 1 0.129038 0.501195 0.499977
21765 1 0.171756 0.508231 0.474976
21764 1 0.185977 0.1816 0.449986
21763 1 0.157487 0.846584 0.450004
21759 1 0.171756 0.00823089 0.474976
21758 1 0.185977 0.6816 0.449986
21757 1 0.157487 0.346584 0.450004
21756 1 0.143264 0.17372 0.474991
21750 1 0.143264 0.67372 0.474991
22309 1 0.157536 0.33523 0.499964
22310 1 0.186033 0.669318 0.499947
22315 1 0.157536 0.83523 0.499964
22316 1 0.186033 0.169318 0.499947
21777 1 0.257224 0.512824 0.47491
21775 1 0.242951 0.852439 0.44994
21771 1 0.257224 0.0128239 0.47491
21769 1 0.242951 0.352439 0.44994
21768 1 0.228738 0.177729 0.474935
21767 1 0.200248 0.842889 0.474957
21766 1 0.214465 0.516865 0.449965
21762 1 0.228738 0.677729 0.474935
21761 1 0.200248 0.342889 0.474957
21760 1 0.214465 0.0168647 0.449965
22312 1 0.214529 0.00347726 0.499928
22318 1 0.214529 0.503477 0.499928
22321 1 0.243024 0.337728 0.499907
22327 1 0.243024 0.837728 0.499907
21780 1 0.314184 0.1842 0.474854
21779 1 0.285707 0.848267 0.474884
21778 1 0.299914 0.524987 0.449882
21776 1 0.271434 0.188433 0.449912
21774 1 0.314184 0.6842 0.474854
21773 1 0.285707 0.348267 0.474884
21772 1 0.299914 0.024987 0.449882
21770 1 0.271434 0.688433 0.449912
22322 1 0.271516 0.67212 0.499885
22324 1 0.300004 0.00670156 0.499862
22328 1 0.271516 0.17212 0.499885
22330 1 0.300004 0.506702 0.499862
21791 1 0.371113 0.858677 0.474778
21790 1 0.38535 0.540994 0.449768
21789 1 0.342653 0.520866 0.47482
21788 1 0.356868 0.200799 0.44981
21787 1 0.328391 0.862325 0.449848
21785 1 0.371113 0.358677 0.474778
21784 1 0.38535 0.0409937 0.449768
21783 1 0.342653 0.0208662 0.47482
21782 1 0.356868 0.700798 0.44981
21781 1 0.328391 0.362324 0.449848
22333 1 0.328483 0.341584 0.499837
22334 1 0.356951 0.676955 0.499809
22336 1 0.385397 0.0131272 0.499776
22339 1 0.328483 0.841584 0.499837
22340 1 0.356951 0.176956 0.499809
22342 1 0.385397 0.513128 0.499776
21801 1 0.428011 0.541233 0.474652
21800 1 0.442402 0.231827 0.449679
21799 1 0.41385 0.883886 0.449725
21795 1 0.428011 0.0412341 0.474652
21794 1 0.442402 0.731825 0.449679
21793 1 0.41385 0.383885 0.449725
21792 1 0.399564 0.198353 0.474726
21786 1 0.399564 0.698354 0.474726
22345 1 0.413801 0.350656 0.499731
22346 1 0.442165 0.690799 0.499664
22351 1 0.413801 0.850657 0.499731
22352 1 0.442165 0.1908 0.499664
21804 1 0.485422 0.262602 0.474606
21803 1 0.456528 0.891873 0.474529
21802 1 0.47112 0.589647 0.449719
21798 1 0.485422 0.762603 0.474606
21797 1 0.456527 0.391875 0.474529
21796 1 0.47112 0.0896448 0.449719
22348 1 0.470618 0.0413884 0.499505
22354 1 0.470618 0.541389 0.499505
22363 1 0.5 0.958334 0.499556
21811 1 0.5 0.958335 0.449809
22287 3 0.000393975 0.996393 0.52498
22289 3 0.0289429 0.329507 0.52498
22290 1 0.0578751 0.662152 0.524953
22293 3 0.000393975 0.496393 0.52498
22295 3 0.0289429 0.829508 0.52498
22296 1 0.0578751 0.162152 0.524953
22838 3 0.0146684 0.658921 0.54996
22840 1 0.0435199 0.99127 0.549891
22844 3 0.0146684 0.158922 0.54996
22846 1 0.0435199 0.49127 0.549891
22299 1 0.0863189 0.995536 0.52497
22301 1 0.114808 0.329074 0.524964
22305 1 0.0863189 0.495536 0.52497
22307 1 0.114808 0.829074 0.524964
22849 1 0.0720475 0.324364 0.549955
22850 1 0.100561 0.657472 0.549947
22852 1 0.129068 0.990605 0.549934
22855 1 0.0720475 0.824364 0.549955
22856 1 0.100561 0.157472 0.549947
22858 1 0.129068 0.490605 0.549934
22302 1 0.143308 0.662669 0.52495
22308 1 0.143308 0.162669 0.52495
22311 1 0.171812 0.996243 0.524935
22317 1 0.171812 0.496243 0.524935
22861 1 0.157583 0.323718 0.549919
22862 1 0.186097 0.65673 0.549904
22867 1 0.157583 0.823718 0.549919
22868 1 0.186097 0.15673 0.549904
22313 1 0.200318 0.329787 0.524917
22314 1 0.228823 0.663295 0.524899
22319 1 0.200318 0.829787 0.524917
22320 1 0.228823 0.163295 0.524899
22323 1 0.257326 0.996754 0.524881
22329 1 0.257326 0.496754 0.524881
22864 1 0.214611 0.989609 0.549887
22870 1 0.214611 0.489609 0.549887
22873 1 0.243126 0.32231 0.549871
22879 1 0.243126 0.82231 0.549871
22325 1 0.285828 0.330156 0.524863
22326 1 0.314326 0.663471 0.524847
22331 1 0.285828 0.830156 0.524863
22332 1 0.314326 0.163471 0.524847
22874 1 0.27164 0.654764 0.549857
22876 1 0.300154 0.986868 0.549846
22880 1 0.27164 0.154764 0.549857
22882 1 0.300154 0.486868 0.549846
22335 1 0.342817 0.996666 0.524833
22337 1 0.371298 0.329634 0.524824
22341 1 0.342817 0.496666 0.524833
22343 1 0.371298 0.829634 0.524824
22885 1 0.328667 0.318451 0.54984
22886 1 0.357177 0.649182 0.549845
22888 1 0.385684 0.978398 0.549868
22891 1 0.328667 0.818451 0.54984
22892 1 0.357177 0.149182 0.549845
22894 1 0.385684 0.478398 0.549868
22338 1 0.399759 0.66207 0.524821
22344 1 0.399759 0.16207 0.524821
22347 1 0.428196 0.993089 0.524837
22353 1 0.428196 0.493088 0.524837
22897 1 0.414188 0.304679 0.549927
22898 1 0.442713 0.624703 0.550059
22903 1 0.414188 0.804679 0.549927
22904 1 0.442713 0.124702 0.550059
22349 1 0.45668 0.320323 0.524906
22350 1 0.485356 0.624879 0.525184
22355 1 0.45668 0.820322 0.524906
22356 1 0.485356 0.124879 0.525184
22900 1 0.471257 0.929248 0.550415
22906 1 0.471257 0.429249 0.550415
22915 1 0.5 0.708333 0.550918
22839 3 0.000393975 0.988593 0.57494
22841 3 0.0289429 0.321245 0.57494
22842 1 0.0578248 0.653663 0.574937
22845 3 0.000393975 0.488593 0.57494
22847 3 0.0289429 0.821245 0.57494
22848 1 0.0578248 0.153663 0.574937
23390 3 0.0146684 0.650995 0.59992
23392 1 0.043286 0.984054 0.599978
23393 3 0.0289429 0.313236 0.6249
23394 1 0.0578404 0.644618 0.624848
23396 3 0.0146684 0.150995 0.59992
23398 1 0.043286 0.484054 0.599978
23399 3 0.0289429 0.813237 0.6249
23400 1 0.0578404 0.144618 0.624848
22851 1 0.0862937 0.986287 0.57493
22853 1 0.114821 0.319038 0.574912
22857 1 0.0862937 0.486287 0.57493
22859 1 0.114821 0.819038 0.574912
23401 1 0.0720499 0.315626 0.599899
23402 1 0.100575 0.647943 0.599883
23403 1 0.0863496 0.977099 0.624855
23404 1 0.129096 0.980268 0.599877
23405 1 0.114855 0.309276 0.624854
23407 1 0.0720499 0.815626 0.599899
23408 1 0.100575 0.147943 0.599883
23409 1 0.0863496 0.477099 0.624855
23410 1 0.129096 0.480268 0.599877
23411 1 0.114855 0.809276 0.624854
22854 1 0.143342 0.651742 0.5749
22860 1 0.143342 0.151742 0.5749
22863 1 0.171865 0.984313 0.574886
22869 1 0.171865 0.484313 0.574886
23406 1 0.143366 0.641241 0.624847
23412 1 0.143366 0.141241 0.624847
23413 1 0.157621 0.312498 0.599866
23414 1 0.186148 0.644498 0.599853
23415 1 0.171894 0.972977 0.624833
23419 1 0.157621 0.812498 0.599866
23420 1 0.186148 0.144498 0.599853
23421 1 0.171894 0.472977 0.624833
22865 1 0.200387 0.316691 0.574872
22866 1 0.22891 0.648805 0.574857
22871 1 0.200387 0.816691 0.574872
22872 1 0.22891 0.148805 0.574857
22875 1 0.257434 0.980563 0.574844
22881 1 0.257434 0.480563 0.574844
23416 1 0.214676 0.976184 0.599839
23417 1 0.200426 0.30437 0.624819
23418 1 0.228962 0.635327 0.624806
23422 1 0.214676 0.476184 0.599839
23423 1 0.200426 0.80437 0.624819
23424 1 0.228962 0.135327 0.624806
23425 1 0.243207 0.307461 0.599827
23427 1 0.257498 0.965724 0.624799
23431 1 0.243207 0.807461 0.599827
23433 1 0.257498 0.465724 0.624799
22877 1 0.285959 0.311819 0.574835
22878 1 0.314485 0.642367 0.574834
22883 1 0.285959 0.811819 0.574835
22884 1 0.314485 0.142367 0.574834
23426 1 0.271739 0.638178 0.599819
23428 1 0.300272 0.968128 0.599819
23429 1 0.286034 0.295373 0.624799
23430 1 0.314568 0.624016 0.624813
23432 1 0.271739 0.138178 0.599819
23434 1 0.300272 0.468128 0.599819
23435 1 0.286034 0.795373 0.624799
23436 1 0.314568 0.124016 0.624813
22887 1 0.343009 0.971832 0.574845
22889 1 0.371531 0.299583 0.574878
22893 1 0.343009 0.471832 0.574845
22895 1 0.371531 0.799583 0.574878
23437 1 0.328802 0.296985 0.599833
23438 1 0.35733 0.624252 0.599868
23439 1 0.343097 0.951278 0.624846
23440 1 0.385851 0.949152 0.599935
23441 1 0.371619 0.276664 0.624908
23443 1 0.328802 0.796985 0.599833
23444 1 0.35733 0.124252 0.599868
23445 1 0.343097 0.451278 0.624846
23446 1 0.385851 0.449152 0.599935
23447 1 0.371619 0.776664 0.624908
22890 1 0.400049 0.624485 0.574947
22896 1 0.400049 0.124485 0.574947
22899 1 0.428565 0.94452 0.575085
22905 1 0.428565 0.44452 0.575085
23442 1 0.400132 0.599538 0.62501
23448 1 0.400132 0.0995379 0.62501
23449 1 0.414365 0.270564 0.600056
23450 1 0.442872 0.587114 0.600262
23451 1 0.42864 0.919305 0.625164
23455 1 0.414365 0.770563 0.600056
23456 1 0.442872 0.0871143 0.600262
23457 1 0.42864 0.419305 0.625164
22901 1 0.457075 0.256307 0.575372
22902 1 0.485638 0.558774 0.575734
22907 1 0.457075 0.756307 0.575372
22908 1 0.485638 0.058772 0.575734
23452 1 0.471399 0.898726 0.600519
23453 1 0.457159 0.236025 0.625351
23454 1 0.485714 0.550999 0.625479
23458 1 0.471399 0.398724 0.600519
23459 1 0.457159 0.736025 0.625351
23460 1 0.485714 0.0510007 0.625479
23461 1 0.5 0.208332 0.600625
23942 3 0.0146684 0.64337 0.64988
23944 3 0.0432173 0.975337 0.64988
23945 3 0.0289429 0.305621 0.67486
23946 3 0.0574918 0.637321 0.67486
23948 3 0.0146684 0.143371 0.64988
23950 3 0.0432173 0.475337 0.64988
23951 3 0.0289429 0.805622 0.67486
23952 3 0.0574918 0.137321 0.67486
23953 1 0.0721359 0.306958 0.649816
23954 1 0.100576 0.638815 0.649838
23955 1 0.0862678 0.969099 0.674786
23956 1 0.129098 0.970578 0.649828
23957 1 0.114791 0.300535 0.674805
23959 1 0.0721358 0.806958 0.649816
23960 1 0.100576 0.138815 0.649838
23961 1 0.0862678 0.469098 0.674786
23962 1 0.129098 0.470578 0.649828
23963 1 0.114791 0.800535 0.674805
23958 1 0.143338 0.631798 0.674792
23964 1 0.143338 0.131798 0.674792
23965 1 0.157623 0.302089 0.649814
23966 1 0.18616 0.633269 0.649798
23967 1 0.171879 0.962794 0.674776
23971 1 0.157623 0.802089 0.649814
23972 1 0.18616 0.133269 0.649798
23973 1 0.171879 0.462794 0.674776
23968 1 0.214699 0.964029 0.649784
23969 1 0.200424 0.293428 0.67476
23970 1 0.228968 0.623581 0.674749
23974 1 0.214699 0.464029 0.649784
23975 1 0.200424 0.793428 0.67476
23976 1 0.228968 0.123581 0.674749
23977 1 0.24324 0.294251 0.649775
23979 1 0.257511 0.953105 0.674747
23983 1 0.24324 0.794251 0.649775
23985 1 0.257511 0.453105 0.674747
23978 1 0.271779 0.623782 0.649775
23980 1 0.300314 0.95242 0.649788
23981 1 0.286048 0.281842 0.674758
23982 1 0.31458 0.609604 0.674785
23984 1 0.271779 0.123782 0.649775
23986 1 0.300314 0.45242 0.649788
23987 1 0.286048 0.781842 0.674758
23988 1 0.31458 0.109604 0.674785
23989 1 0.328844 0.279899 0.649818
23990 1 0.357367 0.605891 0.649873
23991 1 0.343104 0.936191 0.674833
23992 1 0.385882 0.930029 0.649959
23993 1 0.371622 0.261369 0.674906
23995 1 0.328844 0.779899 0.649818
23996 1 0.357367 0.105891 0.649873
23997 1 0.343104 0.436191 0.674833
23998 1 0.385882 0.430029 0.649959
23999 1 0.371622 0.761369 0.674906
23994 1 0.400135 0.584984 0.675004
24000 1 0.400135 0.0849844 0.675004
24001 1 0.414392 0.252033 0.65008
24002 1 0.442908 0.571957 0.650224
24003 1 0.428651 0.90709 0.67512
24007 1 0.414392 0.752033 0.65008
24008 1 0.442908 0.0719568 0.650224
24009 1 0.428651 0.407089 0.67512
24004 1 0.471445 0.890442 0.650347
24005 1 0.45718 0.228016 0.675229
24006 1 0.485724 0.548292 0.675296
24010 1 0.471445 0.390443 0.650347
24011 1 0.45718 0.728016 0.675229
24012 1 0.485724 0.048291 0.675296
24019 1 0.5 0.708333 0.650395
24496 3 0.0432173 0.967785 0.69984
24498 3 0.0574918 0.629886 0.72482
24502 3 0.0432173 0.467784 0.69984
24504 3 0.0574918 0.129886 0.72482
25066 1 0.129062 0.453887 0.749683
25064 1 0.100358 0.123044 0.749778
25063 3 0.0717663 0.791955 0.7498
25060 1 0.129062 0.953887 0.749683
25058 1 0.100358 0.623044 0.749778
25057 3 0.0717663 0.291954 0.7498
24505 1 0.0718092 0.29934 0.699826
24506 1 0.10053 0.630765 0.699745
24507 1 0.0860862 0.961224 0.724801
24508 1 0.129044 0.961925 0.699765
24509 1 0.114796 0.292346 0.724712
24511 1 0.0718092 0.79934 0.699826