ITEM: TIMESTEP
42
ITEM: NUMBER OF ATOMS
2342
ITEM: BOX BOUNDS ss pp ss
-4.0826385615000000e+01 4.0826373533999998e+01
-4.1208122699999999e-01 4.5329187729999996e+00
-4.0744574000000000e+01 4.0071621692000001e+01
ITEM: ATOMS id type xs ys zs
16806 3 0.314432 0.761966 0.0253797
16812 3 0.314432 0.261966 0.0253797
17354 3 0.271609 0.754232 0.0503597
17356 3 0.300158 0.0916871 0.0503597
17360 3 0.271609 0.254233 0.0503597
17362 3 0.300158 0.591687 0.0503597
16815 3 0.342981 0.0995387 0.0253797
16816 3 0.385804 0.107084 0.00039968
16817 3 0.37153 0.437266 0.0253797
16821 3 0.342981 0.599538 0.0253797
16822 3 0.385804 0.607083 0.00039968
16823 3 0.37153 0.937266 0.0253797
17365 3 0.328707 0.42934 0.0503597
17366 3 0.357255 0.76718 0.0503597
17368 1 0.385897 0.106386 0.0506855
17371 3 0.328707 0.92934 0.0503597
17372 3 0.357255 0.26718 0.0503597
17374 1 0.385897 0.606386 0.0506855
16818 3 0.400079 0.77513 0.0253797
16824 3 0.400079 0.27513 0.0253797
16825 3 0.414353 0.444796 0.00039968
16826 3 0.442902 0.782594 0.00039968
16827 3 0.428628 0.113105 0.0253797
16831 3 0.414353 0.944797 0.00039968
16832 3 0.442902 0.282594 0.00039968
16833 3 0.428628 0.613104 0.0253797
17377 1 0.414464 0.443925 0.050712
17378 1 0.442945 0.781736 0.0505787
17383 1 0.414464 0.943925 0.050712
17384 1 0.442945 0.281736 0.0505787
16828 3 0.471451 0.120449 0.00039968
16829 3 0.457177 0.451162 0.0253797
16830 3 0.485726 0.789271 0.0253797
16834 3 0.471451 0.620449 0.00039968
16835 3 0.457177 0.951162 0.0253797
16836 3 0.485726 0.289271 0.0253797
17380 1 0.471468 0.119994 0.0505602
17386 1 0.471468 0.619994 0.0505602
17389 1 0.5 0.458334 0.0505569
17894 3 0.185962 0.738673 0.10032
17895 3 0.171687 0.0677735 0.1253
17900 3 0.185962 0.238673 0.10032
17901 3 0.171687 0.567773 0.1253
17346 3 0.228785 0.746418 0.0753397
17352 3 0.228785 0.246419 0.0753397
17355 3 0.257334 0.0836693 0.0753397
17361 3 0.257334 0.583669 0.0753397
17896 3 0.214511 0.0756447 0.10032
17897 3 0.200236 0.404668 0.1253
17898 1 0.228982 0.74248 0.125528
17902 3 0.214511 0.575644 0.10032
17903 3 0.200236 0.904668 0.1253
17904 1 0.228982 0.24248 0.125528
17905 3 0.24306 0.41287 0.10032
17907 1 0.257537 0.0801474 0.125624
17911 3 0.24306 0.91287 0.10032
17913 1 0.257537 0.580147 0.125624
17357 3 0.285883 0.421153 0.0753397
17358 1 0.314519 0.759676 0.0756448
17363 3 0.285883 0.921153 0.0753397
17364 1 0.314519 0.259676 0.0756448
17906 1 0.271742 0.751302 0.100566
17908 1 0.300325 0.0890485 0.100677
17909 1 0.286023 0.417933 0.125563
17910 1 0.314565 0.756132 0.125563
17912 1 0.271742 0.251302 0.100566
17914 1 0.300325 0.589049 0.100677
17915 1 0.286023 0.917933 0.125563
17916 1 0.314565 0.256132 0.125563
17367 1 0.343128 0.0974915 0.0756375
17369 1 0.371625 0.435613 0.0755847
17373 1 0.343128 0.597491 0.0756375
17375 1 0.371625 0.935613 0.0755846
17917 1 0.328839 0.427021 0.100579
17918 1 0.357366 0.76524 0.100549
17919 1 0.343095 0.0943558 0.125534
17920 1 0.38589 0.103604 0.100561
17921 1 0.371621 0.432866 0.125523
17923 1 0.328839 0.927021 0.100579
17924 1 0.357366 0.26524 0.100549
17925 1 0.343095 0.594356 0.125534
17926 1 0.38589 0.603604 0.100561
17927 1 0.371621 0.932866 0.125523
17370 1 0.400173 0.774133 0.0756243
17376 1 0.400173 0.274133 0.0756243
17379 1 0.428709 0.112381 0.0755776
17385 1 0.428709 0.612381 0.0755776
17922 1 0.400155 0.771647 0.125525
17928 1 0.400155 0.271647 0.125525
17929 1 0.414435 0.442263 0.100568
17930 1 0.442964 0.780899 0.100538
17931 1 0.428691 0.110627 0.125521
17935 1 0.414435 0.942263 0.100568
17936 1 0.442964 0.280899 0.100538
17937 1 0.428691 0.610627 0.125521
17381 1 0.45722 0.450583 0.0755216
17382 1 0.485738 0.78906 0.0755054
17387 1 0.45722 0.950583 0.0755216
17388 1 0.485738 0.28906 0.0755054
17932 1 0.471481 0.119553 0.100511
17933 1 0.457219 0.449662 0.125507
17934 1 0.48574 0.788763 0.125497
17938 1 0.471481 0.619553 0.100511
17939 1 0.457219 0.949662 0.125507
17940 1 0.48574 0.288763 0.125497
18436 3 0.128864 0.0601982 0.15028
18437 3 0.11459 0.389147 0.17526
18442 3 0.128864 0.560198 0.15028
18443 3 0.11459 0.889147 0.17526
18438 3 0.143139 0.725516 0.17526
18444 3 0.143139 0.225517 0.17526
18445 3 0.157413 0.396714 0.15028
18446 1 0.185925 0.73258 0.150357
18447 1 0.171886 0.062863 0.175517
18451 3 0.157413 0.896715 0.15028
18452 1 0.185925 0.23258 0.150357
18453 1 0.171886 0.562863 0.175517
18448 1 0.214659 0.0709455 0.150557
18449 1 0.200363 0.399393 0.175467
18450 1 0.228881 0.736961 0.175448
18454 1 0.214659 0.570946 0.150557
18455 1 0.200363 0.899393 0.175467
18456 1 0.228881 0.236961 0.175448
18457 1 0.243182 0.408685 0.150512
18459 1 0.257427 0.0747586 0.175453
18463 1 0.243182 0.908685 0.150512
18465 1 0.257427 0.574759 0.175453
18458 1 0.271735 0.746625 0.150522
18460 1 0.300271 0.0846552 0.15051
18461 1 0.285971 0.412885 0.175452
18462 1 0.314513 0.751268 0.175447
18464 1 0.271735 0.246625 0.150522
18466 1 0.300271 0.584655 0.15051
18467 1 0.285971 0.912885 0.175452
18468 1 0.314513 0.251268 0.175447
18469 1 0.32881 0.423066 0.150498
18470 1 0.357343 0.761674 0.150487
18471 1 0.343054 0.0900001 0.175446
18472 1 0.385877 0.100598 0.150489
18473 1 0.371593 0.429087 0.175449
18475 1 0.32881 0.923066 0.150498
18476 1 0.357343 0.261674 0.150487
18477 1 0.343054 0.59 0.175446
18478 1 0.385877 0.600598 0.150489
18479 1 0.371593 0.929087 0.175449
18474 1 0.400132 0.768531 0.175457
18480 1 0.400132 0.268531 0.175457
18481 1 0.414414 0.439825 0.150494
18482 1 0.442947 0.779243 0.150493
18483 1 0.42867 0.108276 0.175465
18487 1 0.414414 0.939825 0.150494
18488 1 0.442947 0.279243 0.150493
18489 1 0.42867 0.608276 0.175465
18484 1 0.471475 0.118763 0.150488
18485 1 0.457204 0.448226 0.175469
18486 1 0.485735 0.788286 0.17547
18490 1 0.471475 0.618763 0.150488
18491 1 0.457204 0.948226 0.175469
18492 1 0.485735 0.288286 0.17547
18986 3 0.100315 0.718008 0.20024
18987 3 0.0860407 0.0468073 0.22522
18988 3 0.128864 0.0542022 0.20024
18989 3 0.11459 0.382799 0.22522
18992 3 0.100315 0.218009 0.20024
18993 3 0.0860407 0.546807 0.22522
18994 3 0.128864 0.554202 0.20024
18995 3 0.11459 0.8828 0.22522
18990 1 0.143277 0.719168 0.225352
18996 1 0.143277 0.219168 0.225352
18997 1 0.15763 0.390999 0.200507
18998 1 0.186108 0.727991 0.200443
18999 1 0.17179 0.0561229 0.225376
19003 1 0.15763 0.890999 0.200507
19004 1 0.186108 0.227991 0.200443
19005 1 0.17179 0.556123 0.225376
19000 1 0.214611 0.0650739 0.2004
19001 1 0.200324 0.393135 0.225364
19002 1 0.228842 0.730467 0.225337
19006 1 0.214611 0.565074 0.2004
19007 1 0.200324 0.893135 0.225364
19008 1 0.228842 0.230467 0.225337
19009 1 0.243134 0.402692 0.200389
19011 1 0.257372 0.0682382 0.225329
19015 1 0.243134 0.902692 0.200389
19017 1 0.257372 0.568238 0.225329
19010 1 0.271669 0.740681 0.200387
19012 1 0.300212 0.0790594 0.20039
19013 1 0.28591 0.406487 0.225328
19014 1 0.314452 0.745223 0.225332
19016 1 0.271669 0.240681 0.200387
19018 1 0.300212 0.579059 0.20039
19019 1 0.28591 0.906487 0.225328
19020 1 0.314452 0.245223 0.225332
19021 1 0.328756 0.41784 0.200393
19022 1 0.357299 0.757049 0.2004
19023 1 0.342997 0.0844675 0.225342
19024 1 0.385843 0.0966859 0.200412
19025 1 0.371544 0.424231 0.225356
19027 1 0.328756 0.91784 0.200393
19028 1 0.357299 0.257049 0.2004
19029 1 0.342997 0.584467 0.225342
19030 1 0.385843 0.596686 0.200412
19031 1 0.371544 0.924231 0.225356
19026 1 0.400092 0.764505 0.225376
19032 1 0.400092 0.264505 0.225376
19033 1 0.414385 0.436719 0.200426
19034 1 0.442926 0.777079 0.200438
19035 1 0.428639 0.105237 0.225396
19039 1 0.414385 0.936719 0.200426
19040 1 0.442926 0.277079 0.200438
19041 1 0.428639 0.605237 0.225396
19036 1 0.471464 0.117653 0.200446
19037 1 0.457185 0.446329 0.225413
19038 1 0.485729 0.78764 0.225422
19042 1 0.471464 0.617653 0.200446
19043 1 0.457185 0.946329 0.225413
19044 1 0.485729 0.28764 0.225422
19051 1 0.5 0.958334 0.200449
19530 3 0.0574918 0.704333 0.27518
19536 3 0.0574918 0.204334 0.27518
20080 3 0.0432173 0.0331215 0.30016
20086 3 0.0432173 0.533121 0.30016
19537 3 0.0717663 0.375572 0.2502
19538 3 0.100315 0.711342 0.2502
19539 3 0.0860407 0.0398619 0.27518
19540 1 0.128998 0.0474692 0.250296
19541 1 0.114727 0.375771 0.275258
19543 3 0.0717663 0.875572 0.2502
19544 3 0.100315 0.211342 0.2502
19545 3 0.0860407 0.539861 0.27518
19546 1 0.128998 0.547469 0.250296
19547 1 0.114727 0.875771 0.275258
20089 3 0.0717663 0.368394 0.30016
20090 1 0.100464 0.704068 0.300226
20092 1 0.128936 0.0399464 0.300186
20095 3 0.0717663 0.868395 0.30016
20096 1 0.100464 0.204068 0.300226
20098 1 0.128936 0.539946 0.300186
19542 1 0.143199 0.711958 0.275228
19548 1 0.143199 0.211958 0.275228
19549 1 0.157479 0.383979 0.250286
19550 1 0.186017 0.720922 0.2503
19551 1 0.171723 0.0485314 0.275233
19555 1 0.157479 0.883979 0.250286
19556 1 0.186017 0.220922 0.2503
19557 1 0.171723 0.548531 0.275233
20101 1 0.157451 0.376156 0.300181
20102 1 0.185965 0.712761 0.300177
20107 1 0.157451 0.876156 0.300181
20108 1 0.185965 0.212761 0.300177
19552 1 0.214545 0.0580821 0.250287
19553 1 0.200249 0.385479 0.275231
19554 1 0.228777 0.722779 0.275222
19558 1 0.214545 0.558082 0.250287
19559 1 0.200249 0.885479 0.275231
19560 1 0.228777 0.222779 0.275222
19561 1 0.243075 0.39561 0.250275
19563 1 0.257306 0.0605272 0.275212
19567 1 0.243075 0.89561 0.250275
19569 1 0.257306 0.560527 0.275212
20104 1 0.214487 0.049771 0.30017
20110 1 0.214487 0.549771 0.30017
20113 1 0.243009 0.387214 0.30016
20119 1 0.243009 0.887214 0.30016
19562 1 0.271608 0.733629 0.250268
19564 1 0.300146 0.0721977 0.250269
19565 1 0.285839 0.398831 0.275207
19566 1 0.314379 0.737775 0.275209
19568 1 0.271608 0.233629 0.250268
19570 1 0.300146 0.572198 0.250269
19571 1 0.285839 0.898831 0.275207
19572 1 0.314379 0.237775 0.275209
20114 1 0.271536 0.72519 0.30015
20116 1 0.300068 0.0637976 0.300145
20120 1 0.271536 0.22519 0.30015
20122 1 0.300068 0.563798 0.300145
19573 1 0.32869 0.411356 0.250276
19574 1 0.357238 0.751139 0.250291
19575 1 0.342925 0.0774291 0.275221
19576 1 0.38579 0.091562 0.250314
19577 1 0.371479 0.417857 0.275242
19579 1 0.32869 0.911356 0.250276
19580 1 0.357238 0.251139 0.250291
19581 1 0.342925 0.577429 0.275221
19582 1 0.38579 0.591562 0.250314
19583 1 0.371479 0.917857 0.275242
20125 1 0.328609 0.403162 0.300149
20126 1 0.357159 0.743408 0.300165
20128 1 0.385718 0.0846297 0.300192
20131 1 0.328609 0.903162 0.300149
20132 1 0.357159 0.243408 0.300165
20134 1 0.385718 0.58463 0.300192
20144 1 0.442854 0.270052 0.300269
20143 1 0.414284 0.926869 0.30023
19578 1 0.400037 0.759087 0.275272
19584 1 0.400037 0.259087 0.275272
19585 1 0.414344 0.432604 0.25034
19586 1 0.442897 0.774185 0.250366
19587 1 0.428597 0.101077 0.275305
19591 1 0.414344 0.932604 0.25034
19592 1 0.442897 0.274185 0.250366
19593 1 0.428597 0.601077 0.275305
20137 1 0.414284 0.426868 0.30023
20138 1 0.442854 0.770052 0.300269
20146 1 0.471427 0.613983 0.3003
19588 1 0.471449 0.116158 0.250385
19589 1 0.457159 0.4437 0.275335
19590 1 0.48572 0.78674 0.275352
19594 1 0.471449 0.616158 0.250385
19595 1 0.457159 0.9437 0.275335
19596 1 0.48572 0.28674 0.275352
20140 1 0.471427 0.113983 0.3003
19603 1 0.5 0.958334 0.250392
20155 1 0.5 0.958334 0.300312
20640 1 0.0578069 0.18858 0.375142
20639 3 0.0289429 0.854407 0.3751
20638 3 0.0432173 0.525636 0.35012
20636 3 0.0146684 0.19089 0.35012
20634 1 0.0578069 0.68858 0.375142
20633 3 0.0289429 0.354406 0.3751
20632 3 0.0432173 0.0256367 0.35012
20630 3 0.0146684 0.690889 0.35012
20081 3 0.0289429 0.361964 0.32514
20082 3 0.0574918 0.696975 0.32514
20087 3 0.0289429 0.861964 0.32514
20088 3 0.0574918 0.196976 0.32514
20651 1 0.114746 0.85905 0.375099
20650 1 0.12897 0.531337 0.350113
20649 1 0.0862797 0.523794 0.375121
20648 1 0.100495 0.195723 0.350127
20647 1 0.0721011 0.86049 0.350173
20645 1 0.114746 0.35905 0.375099
20644 1 0.12897 0.0313372 0.350113
20643 1 0.0862797 0.0237943 0.375121
20642 1 0.100495 0.695723 0.350127
20641 1 0.0721011 0.36049 0.350173
20091 1 0.0862215 0.0323494 0.325192
20093 1 0.114694 0.367908 0.32515
20097 1 0.0862215 0.532349 0.325192
20099 1 0.114694 0.867908 0.32515
20661 1 0.171705 0.530456 0.375065
20660 1 0.185951 0.203533 0.35009
20659 1 0.157454 0.867266 0.350101
20655 1 0.171705 0.0304564 0.375065
20654 1 0.185951 0.703533 0.35009
20653 1 0.157454 0.367266 0.350101
20652 1 0.143217 0.194583 0.37508
20646 1 0.143217 0.694583 0.37508
20094 1 0.143198 0.70377 0.325141
20100 1 0.143198 0.20377 0.325141
20103 1 0.171701 0.0400142 0.325133
20109 1 0.171701 0.540014 0.325133
20673 1 0.257192 0.540424 0.375008
20671 1 0.242959 0.877331 0.350059
20667 1 0.257192 0.040424 0.375008
20665 1 0.242959 0.377331 0.350059
20664 1 0.228693 0.203299 0.375029
20663 1 0.200197 0.866671 0.375048
20662 1 0.214453 0.540202 0.350076
20658 1 0.228693 0.703299 0.375029
20657 1 0.200197 0.366671 0.375048
20656 1 0.214453 0.0402016 0.350076
20105 1 0.200211 0.376663 0.325125
20106 1 0.228723 0.713744 0.325113
20111 1 0.200211 0.876663 0.325125
20112 1 0.228723 0.213744 0.325113
20115 1 0.257241 0.0513239 0.3251
20121 1 0.257241 0.551324 0.3251
20676 1 0.314207 0.216748 0.374968
20675 1 0.285696 0.878178 0.374987
20674 1 0.299987 0.553407 0.350028
20672 1 0.271469 0.215015 0.350042
20670 1 0.314207 0.716748 0.374968
20669 1 0.285696 0.378178 0.374987
20668 1 0.299987 0.053407 0.350028
20666 1 0.271469 0.715015 0.350042
20117 1 0.285763 0.38951 0.325088
20118 1 0.314294 0.728444 0.325083
20123 1 0.285763 0.88951 0.325088
20124 1 0.314294 0.228444 0.325083
20687 1 0.371269 0.897404 0.374957
20686 1 0.385614 0.574912 0.350045
20685 1 0.34273 0.556377 0.374957
20684 1 0.357055 0.233101 0.350024
20683 1 0.328514 0.892691 0.35002
20681 1 0.371269 0.397404 0.374957
20680 1 0.385614 0.0749116 0.350045
20679 1 0.34273 0.0563773 0.374957
20678 1 0.357055 0.733101 0.350024
20677 1 0.328514 0.392691 0.35002
20127 1 0.342834 0.0683014 0.325088
20129 1 0.371388 0.409258 0.325106
20133 1 0.342835 0.568301 0.325088
20135 1 0.371388 0.909258 0.325106
20697 1 0.428426 0.585424 0.375021
20696 1 0.442786 0.263646 0.350136
20695 1 0.414191 0.918385 0.350085
20691 1 0.428426 0.0854245 0.375021
20690 1 0.442786 0.763646 0.350136
20689 1 0.414191 0.418385 0.350085
20688 1 0.399833 0.240265 0.374978
20682 1 0.399833 0.740266 0.374978
20145 1 0.428533 0.594995 0.325185
20130 1 0.399955 0.751468 0.32514
20136 1 0.399955 0.251468 0.32514
20139 1 0.428533 0.0949956 0.325185
20700 1 0.48568 0.282996 0.375121
20699 1 0.457046 0.93315 0.375079
20698 1 0.471391 0.610508 0.350182
20694 1 0.48568 0.782997 0.375121
20693 1 0.457046 0.433151 0.375079
20692 1 0.471391 0.110508 0.350182
20148 1 0.485705 0.285361 0.325257
20147 1 0.457118 0.939737 0.325229
20142 1 0.485705 0.785361 0.325257
20141 1 0.457118 0.439737 0.325229
20707 1 0.5 0.958334 0.3502
21192 1 0.0577967 0.180598 0.425048
21191 3 0.0289429 0.84644 0.42506
21190 1 0.0432609 0.518758 0.400007
21189 3 0.000393975 0.51237 0.42506
21188 3 0.0146684 0.183312 0.40008
21186 1 0.0577967 0.680598 0.425048
21185 3 0.0289429 0.34644 0.42506
21184 1 0.0432609 0.0187575 0.400007
21183 3 0.000393975 0.0123705 0.42506
21182 3 0.0146684 0.683311 0.40008
21203 1 0.114736 0.849704 0.425044
21202 1 0.128976 0.522081 0.400065
21201 1 0.0862372 0.51498 0.425045
21200 1 0.10049 0.187013 0.400082
21199 1 0.0719984 0.852301 0.400083
21197 1 0.114736 0.349704 0.425044
21196 1 0.128976 0.0220807 0.400065
21195 1 0.0862372 0.0149803 0.425045
21194 1 0.10049 0.687013 0.400082
21193 1 0.0719984 0.352301 0.400083
21213 1 0.171718 0.51994 0.425014
21212 1 0.185953 0.193233 0.400029
21211 1 0.157465 0.857499 0.400048
21207 1 0.171718 0.0199402 0.425014
21206 1 0.185953 0.693233 0.400029
21205 1 0.157465 0.357499 0.400048
21204 1 0.143227 0.184697 0.425031
21198 1 0.143227 0.684697 0.425031
21225 1 0.257181 0.527665 0.424947
21223 1 0.242934 0.865834 0.399986
21219 1 0.257181 0.0276647 0.424947
21217 1 0.242934 0.365834 0.399986
21216 1 0.228694 0.191352 0.424972
21215 1 0.200207 0.855476 0.424994
21214 1 0.214443 0.529317 0.400008
21210 1 0.228694 0.691352 0.424972
21209 1 0.200207 0.355476 0.424994
21208 1 0.214443 0.0293166 0.400008
21228 1 0.314153 0.202183 0.424889
21227 1 0.285666 0.864542 0.424919
21226 1 0.299923 0.540645 0.399935
21224 1 0.271427 0.202887 0.399961
21222 1 0.314153 0.702184 0.424889
21221 1 0.285666 0.364542 0.424919
21220 1 0.299923 0.0406448 0.399935
21218 1 0.271427 0.702887 0.399961
21239 1 0.371145 0.881039 0.424829
21238 1 0.385475 0.560978 0.399886
21237 1 0.342643 0.540867 0.424858
21236 1 0.356939 0.219279 0.399892
21235 1 0.328425 0.879332 0.399911
21233 1 0.371145 0.38104 0.424829
21232 1 0.385475 0.0609777 0.399886
21231 1 0.342643 0.0408673 0.424858
21230 1 0.35694 0.719279 0.399892
21229 1 0.328425 0.379332 0.399911
21249 1 0.428239 0.56919 0.424807
21248 1 0.442659 0.252691 0.399946
21247 1 0.414044 0.905128 0.399901
21243 1 0.428239 0.0691914 0.424807
21242 1 0.442659 0.75269 0.399946
21241 1 0.414044 0.405127 0.399901
21240 1 0.39967 0.223403 0.424809
21234 1 0.39967 0.723403 0.424809
21252 1 0.485623 0.278124 0.42492
21251 1 0.456888 0.920485 0.42485
21250 1 0.471319 0.60417 0.40001
21246 1 0.485623 0.778126 0.42492
21245 1 0.456888 0.420486 0.42485
21244 1 0.471319 0.104169 0.40001
21259 1 0.5 0.958334 0.400039
21744 1 0.0578626 0.171387 0.475036
21743 3 0.0289429 0.8382 0.47502
21742 1 0.0435061 0.508878 0.450097
21741 3 0.000393975 0.504589 0.47502
21740 3 0.0146684 0.175415 0.45004
21738 1 0.0578626 0.671387 0.475036
21737 3 0.0289429 0.3382 0.47502
21736 1 0.0435061 0.0088776 0.450097
21735 3 0.000393975 0.00458985 0.47502
21734 3 0.0146684 0.675415 0.45004
22286 3 0.0146684 0.667342 0.5
22292 3 0.0146684 0.167343 0.5
22288 1 0.0434887 6.17428e-06 0.499998
22294 1 0.0434887 0.500006 0.499998
21755 1 0.114777 0.839588 0.474994
21754 1 0.128997 0.51204 0.450012
21753 1 0.0862959 0.505347 0.475007
21752 1 0.100509 0.177444 0.45002
21751 1 0.0720146 0.843072 0.450028
21749 1 0.114777 0.339588 0.474994
21748 1 0.128997 0.0120402 0.450012
21747 1 0.0862959 0.00534698 0.475007
21746 1 0.100509 0.677444 0.45002
21745 1 0.0720146 0.343072 0.450028
22298 1 0.100552 0.667545 0.499978
22300 1 0.129044 0.00145433 0.499968
22304 1 0.100552 0.167545 0.499978
22306 1 0.129044 0.501454 0.499968
22297 1 0.0720467 0.333758 0.499994
22303 1 0.0720467 0.833758 0.499994
21765 1 0.171761 0.508473 0.474971
21764 1 0.185981 0.181836 0.449983
21763 1 0.157491 0.846839 0.45
21759 1 0.171761 0.00847263 0.474971
21758 1 0.185981 0.681836 0.449983
21757 1 0.157491 0.346839 0.45
21756 1 0.143268 0.173981 0.474984
21750 1 0.143268 0.673981 0.474984
22309 1 0.157542 0.335471 0.499958
22310 1 0.186038 0.669536 0.499944
22315 1 0.157542 0.835471 0.499958
22316 1 0.186038 0.169536 0.499944
21777 1 0.257227 0.513 0.474911
21775 1 0.242954 0.852632 0.449939
21771 1 0.257227 0.0129997 0.474911
21769 1 0.242954 0.352632 0.449939
21768 1 0.228741 0.177925 0.474934
21767 1 0.200252 0.843108 0.474954
21766 1 0.214469 0.517077 0.449963
21762 1 0.228741 0.677925 0.474934
21761 1 0.200252 0.343108 0.474954
21760 1 0.214469 0.0170774 0.449963
22312 1 0.214534 0.00367342 0.499927
22318 1 0.214534 0.503673 0.499927
22321 1 0.243027 0.337904 0.499908
22327 1 0.243027 0.837904 0.499908
21780 1 0.314186 0.184336 0.474857
21779 1 0.28571 0.848422 0.474886
21778 1 0.299917 0.525137 0.449883
21776 1 0.271437 0.188604 0.449913
21774 1 0.314186 0.684336 0.474857
21773 1 0.28571 0.348423 0.474886
21772 1 0.299917 0.0251369 0.449883
21770 1 0.271437 0.688604 0.449913
22322 1 0.271518 0.672277 0.499888
22324 1 0.300005 0.00684162 0.499865
22328 1 0.271518 0.172277 0.499888
22330 1 0.300005 0.506842 0.499865
21791 1 0.371114 0.858779 0.474783
21790 1 0.385351 0.541091 0.449772
21789 1 0.342655 0.520985 0.474823
21788 1 0.356869 0.200915 0.449813
21787 1 0.328393 0.862456 0.44985
21785 1 0.371114 0.358779 0.474783
21784 1 0.385351 0.0410904 0.449772
21783 1 0.342655 0.0209858 0.474823
21782 1 0.356869 0.700914 0.449813
21781 1 0.328393 0.362456 0.44985
22333 1 0.328484 0.341707 0.499841
22334 1 0.356952 0.677062 0.499814
22336 1 0.385397 0.013215 0.499782
22339 1 0.328484 0.841707 0.499841
22340 1 0.356952 0.177062 0.499814
22342 1 0.385397 0.513216 0.499782
21801 1 0.428011 0.541297 0.474657
21800 1 0.442403 0.231883 0.449683
21799 1 0.413851 0.883963 0.449729
21795 1 0.428011 0.0412979 0.474657
21794 1 0.442403 0.731882 0.449683
21793 1 0.413852 0.383962 0.449729
21792 1 0.399565 0.198437 0.474731
21786 1 0.399565 0.698437 0.474731
22345 1 0.413802 0.350725 0.499737
22346 1 0.442165 0.690852 0.49967
22351 1 0.413801 0.850726 0.499737
22352 1 0.442165 0.190853 0.49967
22363 1 0.5 0.958334 0.499563
21796 1 0.471121 0.0896761 0.449723
22354 1 0.470618 0.541434 0.499511
22348 1 0.470618 0.0414334 0.499511
21804 1 0.485422 0.262624 0.474612
21803 1 0.456528 0.89192 0.474535
21802 1 0.471121 0.589678 0.449723
21798 1 0.485422 0.762626 0.474612
21797 1 0.456528 0.391921 0.474535
21811 1 0.5 0.958335 0.449814
22287 3 0.000393975 0.996721 0.52498
22289 3 0.0289429 0.329855 0.52498
22290 1 0.0578649 0.662325 0.524966
22293 3 0.000393975 0.49672 0.52498
22295 3 0.0289429 0.829855 0.52498
22296 1 0.0578649 0.162325 0.524966
22838 3 0.0146684 0.659256 0.54996
22840 1 0.0434964 0.991351 0.549942
22844 3 0.0146684 0.159257 0.54996
22846 1 0.0434964 0.491351 0.549942
22299 1 0.0863233 0.99577 0.524957
22301 1 0.114819 0.329322 0.52495
22305 1 0.0863233 0.49577 0.524957
22307 1 0.114819 0.829322 0.52495
22849 1 0.0720661 0.324551 0.549926
22850 1 0.100583 0.657681 0.549926
22852 1 0.129084 0.990807 0.549924
22855 1 0.0720661 0.824551 0.549926
22856 1 0.100583 0.157681 0.549926
22858 1 0.129084 0.490807 0.549924
22302 1 0.143319 0.662899 0.524942
22308 1 0.143319 0.162899 0.524942
22311 1 0.17182 0.996455 0.524931
22317 1 0.17182 0.496455 0.524931
22861 1 0.157592 0.323915 0.549916
22862 1 0.186102 0.656921 0.549905
22867 1 0.157592 0.823915 0.549916
22868 1 0.186102 0.156921 0.549905
22313 1 0.200323 0.329982 0.524917
22314 1 0.228825 0.663473 0.524901
22319 1 0.200323 0.829982 0.524917
22320 1 0.228825 0.163473 0.524901
22323 1 0.257327 0.996915 0.524885
22329 1 0.257327 0.496915 0.524885
22864 1 0.214613 0.989792 0.54989
22870 1 0.214613 0.489792 0.54989
22873 1 0.243126 0.322478 0.549876
22879 1 0.243126 0.822478 0.549876
22325 1 0.285828 0.330301 0.524868
22326 1 0.314326 0.663599 0.524852
22331 1 0.285828 0.830301 0.524868
22332 1 0.314326 0.163599 0.524852
22874 1 0.271639 0.654917 0.549862
22876 1 0.300153 0.987004 0.549852
22880 1 0.271639 0.154917 0.549862
22882 1 0.300153 0.487004 0.549852
22335 1 0.342817 0.996779 0.524839
22337 1 0.371297 0.329728 0.52483
22341 1 0.342817 0.496779 0.524839
22343 1 0.371297 0.829728 0.52483
22885 1 0.328666 0.318569 0.549847
22886 1 0.357176 0.649284 0.549852
22888 1 0.385682 0.97848 0.549875
22891 1 0.328666 0.818569 0.549847
22892 1 0.357176 0.149284 0.549852
22894 1 0.385682 0.47848 0.549875
22338 1 0.399759 0.662144 0.524828
22344 1 0.399759 0.162144 0.524828
22347 1 0.428196 0.993144 0.524844
22353 1 0.428196 0.493144 0.524844
22897 1 0.414187 0.30474 0.549935
22898 1 0.442713 0.624744 0.550067
22903 1 0.414187 0.80474 0.549935
22904 1 0.442713 0.124743 0.550067
22349 1 0.45668 0.32036 0.524913
22350 1 0.485356 0.624892 0.525192
22355 1 0.45668 0.82036 0.524913
22356 1 0.485356 0.124892 0.525192
22900 1 0.471257 0.929272 0.550423
22906 1 0.471257 0.429273 0.550423
22915 1 0.5 0.708333 0.550926
22839 3 0.000393975 0.988915 0.57494
22841 3 0.0289429 0.321585 0.57494
22842 1 0.0578868 0.653593 0.574885
22845 3 0.000393975 0.488914 0.57494
22847 3 0.0289429 0.821586 0.57494
22848 1 0.0578868 0.153593 0.574885
23390 3 0.0146684 0.65132 0.59992
23391 3 0.000393975 0.981318 0.6249
23392 1 0.0435227 0.983118 0.599823
23393 3 0.0289429 0.313563 0.6249
23394 1 0.0578444 0.645437 0.624813
23396 3 0.0146684 0.151321 0.59992
23397 3 0.000393975 0.481317 0.6249
23398 1 0.0435227 0.483118 0.599823
23399 3 0.0289429 0.813563 0.6249
23400 1 0.0578444 0.145437 0.624813
22851 1 0.0863443 0.986383 0.574896
22853 1 0.114842 0.319191 0.574903
22857 1 0.0863443 0.486383 0.574896
22859 1 0.114842 0.819191 0.574903
23401 1 0.0720671 0.315715 0.599864
23402 1 0.10058 0.648158 0.599879
23403 1 0.0862853 0.977563 0.624858
23404 1 0.129088 0.980519 0.59988
23405 1 0.11481 0.309681 0.624857
23407 1 0.0720671 0.815715 0.599864
23408 1 0.10058 0.148158 0.599879
23409 1 0.0862853 0.477563 0.624858
23410 1 0.129088 0.480519 0.59988
23411 1 0.11481 0.809681 0.624857
22854 1 0.14335 0.651931 0.574899
22860 1 0.14335 0.151931 0.574899
22863 1 0.171865 0.984514 0.574889
22869 1 0.171865 0.484514 0.574889
23406 1 0.143337 0.641611 0.624851
23412 1 0.143337 0.141611 0.624851
23413 1 0.157612 0.312751 0.599871
23414 1 0.186138 0.644738 0.599858
23415 1 0.171874 0.973289 0.624838
23419 1 0.157612 0.812751 0.599871
23420 1 0.186138 0.144738 0.599858
23421 1 0.171874 0.473289 0.624838
22865 1 0.200385 0.316888 0.574876
22866 1 0.228907 0.648989 0.574862
22871 1 0.200385 0.816888 0.574876
22872 1 0.228907 0.148988 0.574862
22875 1 0.25743 0.980727 0.57485
22881 1 0.25743 0.480727 0.57485
23416 1 0.214668 0.976402 0.599845
23417 1 0.200411 0.304637 0.624824
23418 1 0.22895 0.635554 0.624812
23422 1 0.214668 0.476402 0.599845
23423 1 0.200411 0.804637 0.624824
23424 1 0.22895 0.135554 0.624812
23425 1 0.2432 0.307651 0.599833
23427 1 0.257489 0.965915 0.624805
23431 1 0.2432 0.807651 0.599833
23433 1 0.257489 0.465915 0.624805
22877 1 0.285956 0.311966 0.574842
22878 1 0.314481 0.642493 0.574841
22883 1 0.285956 0.811966 0.574842
22884 1 0.314481 0.142493 0.574841
23426 1 0.271733 0.638343 0.599826
23428 1 0.300266 0.96827 0.599827
23429 1 0.286026 0.295534 0.624807
23430 1 0.314561 0.624151 0.624821
23432 1 0.271733 0.138343 0.599826
23434 1 0.300266 0.46827 0.599827
23435 1 0.286026 0.795534 0.624807
23436 1 0.314561 0.124151 0.624821
22887 1 0.343006 0.971941 0.574853
22889 1 0.371529 0.299674 0.574885
22893 1 0.343006 0.471941 0.574853
22895 1 0.371529 0.799674 0.574885
23437 1 0.328798 0.297107 0.599841
23438 1 0.357326 0.624354 0.599876
23439 1 0.343091 0.951394 0.624855
23440 1 0.385848 0.949234 0.599944
23441 1 0.371615 0.276756 0.624917
23443 1 0.328798 0.797107 0.599841
23444 1 0.357326 0.124354 0.599876
23445 1 0.343091 0.451394 0.624855
23446 1 0.385848 0.449235 0.599944
23447 1 0.371615 0.776756 0.624917
22890 1 0.400047 0.624556 0.574956
22896 1 0.400047 0.124556 0.574956
22899 1 0.428563 0.944569 0.575093
22905 1 0.428563 0.444569 0.575093
23442 1 0.400129 0.599611 0.625019
23448 1 0.400129 0.0996105 0.625019
23449 1 0.414362 0.270626 0.600065
23450 1 0.44287 0.587153 0.600271
23451 1 0.428637 0.919358 0.625174
23455 1 0.414362 0.770625 0.600065
23456 1 0.44287 0.0871534 0.600271
23457 1 0.428637 0.419359 0.625174
22901 1 0.457074 0.256336 0.575381
22902 1 0.485637 0.558785 0.575743
22907 1 0.457074 0.756337 0.575381
22908 1 0.485637 0.0587833 0.575743
23452 1 0.471398 0.898746 0.600529
23453 1 0.457157 0.236058 0.62536
23454 1 0.485713 0.55101 0.625488
23458 1 0.471398 0.398744 0.600529
23459 1 0.457157 0.736057 0.62536
23460 1 0.485713 0.0510111 0.625488
23461 1 0.5 0.208332 0.600635
23942 3 0.0146684 0.643681 0.64988
23944 3 0.0432173 0.975663 0.64988
23945 3 0.0289429 0.305929 0.67486
23946 3 0.0574918 0.637644 0.67486
23948 3 0.0146684 0.143681 0.64988
23950 3 0.0432173 0.475663 0.64988
23951 3 0.0289429 0.80593 0.67486
23952 3 0.0574918 0.137644 0.67486
23953 1 0.0719739 0.307623 0.649805
23954 1 0.100497 0.639402 0.649829
23955 1 0.0862324 0.969414 0.674767
23956 1 0.129049 0.971043 0.649823
23957 1 0.114754 0.300899 0.67479
23959 1 0.0719738 0.807623 0.649805
23960 1 0.100497 0.139402 0.649829
23961 1 0.0862324 0.469414 0.674767
23962 1 0.129049 0.471043 0.649823
23963 1 0.114754 0.800899 0.67479
23958 1 0.143309 0.632151 0.674784
23964 1 0.143309 0.132151 0.674784
23965 1 0.157593 0.302466 0.649814
23966 1 0.186139 0.633581 0.6498
23967 1 0.171856 0.96311 0.674774
23971 1 0.157593 0.802466 0.649814
23972 1 0.186139 0.133581 0.6498
23973 1 0.171856 0.46311 0.674774
23968 1 0.214684 0.964287 0.649788
23969 1 0.200406 0.293697 0.674761
23970 1 0.228953 0.623803 0.674753
23974 1 0.214684 0.464287 0.649788
23975 1 0.200406 0.793697 0.674761
23976 1 0.228953 0.123803 0.674753
23977 1 0.243227 0.294464 0.649781
23979 1 0.257498 0.953286 0.674753
23983 1 0.243227 0.794464 0.649781
23985 1 0.257498 0.453286 0.674753
23978 1 0.271768 0.623958 0.649782
23980 1 0.300305 0.952567 0.649795
23981 1 0.286037 0.281991 0.674765
23982 1 0.31457 0.609736 0.674792
23984 1 0.271768 0.123958 0.649782
23986 1 0.300305 0.452567 0.649795
23987 1 0.286037 0.781991 0.674765
23988 1 0.31457 0.109736 0.674792
23989 1 0.328837 0.280024 0.649826
23990 1 0.357361 0.605995 0.649882
23991 1 0.343097 0.936302 0.674841
23992 1 0.385877 0.930113 0.649968
23993 1 0.371616 0.261461 0.674914
23995 1 0.328837 0.780024 0.649826
23996 1 0.357361 0.105995 0.649882
23997 1 0.343097 0.436302 0.674841
23998 1 0.385877 0.430113 0.649968
23999 1 0.371616 0.761461 0.674914
23994 1 0.400131 0.58506 0.675013
24000 1 0.400131 0.08506 0.675013
24001 1 0.414389 0.252096 0.65009
24002 1 0.442906 0.572 0.650234
24003 1 0.428648 0.907142 0.675129
24007 1 0.414389 0.752096 0.650089
24008 1 0.442906 0.0719996 0.650234
24009 1 0.428648 0.407142 0.675129
24004 1 0.471444 0.890463 0.650357
24005 1 0.457178 0.228046 0.675239
24006 1 0.485723 0.548301 0.675306
24010 1 0.471444 0.390464 0.650357
24011 1 0.457178 0.728046 0.675239
24012 1 0.485723 0.0483005 0.675306
24019 1 0.5 0.708333 0.650405
24496 3 0.0432173 0.968089 0.69984
24498 3 0.0574918 0.630183 0.72482
24502 3 0.0432173 0.468088 0.69984
24504 3 0.0574918 0.130184 0.72482
25066 1 0.129056 0.454144 0.749679
25064 1 0.100355 0.123315 0.749775
25063 3 0.0717663 0.792244 0.7498
25060 1 0.129056 0.954144 0.749679
25058 1 0.100355 0.623315 0.749775
25057 3 0.0717663 0.292243 0.7498
24505 1 0.0718041 0.29965 0.699822
24506 1 0.100513 0.631043 0.699733