ITEM: TIMESTEP
27
ITEM: NUMBER OF ATOMS
2354
ITEM: BOX BOUNDS ss pp ss
-4.0826385615000000e+01 4.0826373533999998e+01
-4.1208122699999999e-01 4.5329187729999996e+00
-4.1585736442000005e+01 4.1249249110000001e+01
ITEM: ATOMS id type xs ys zs
17354 3 0.271609 0.754956 0.0491324
17356 3 0.300158 0.0923522 0.0491324
17360 3 0.271609 0.254957 0.0491324
17362 3 0.300158 0.592352 0.0491324
16815 3 0.342981 0.100045 0.0247612
16817 3 0.37153 0.437694 0.0247612
16821 3 0.342981 0.600045 0.0247612
16823 3 0.37153 0.937695 0.0247612
17365 3 0.328707 0.429936 0.0491324
17366 3 0.357255 0.767696 0.0491324
17368 3 0.385804 0.105615 0.0491324
17371 3 0.328707 0.929936 0.0491324
17372 3 0.357255 0.267697 0.0491324
17374 3 0.385804 0.605614 0.0491324
16818 3 0.400079 0.775472 0.0247612
16824 3 0.400079 0.275472 0.0247612
16826 3 0.442902 0.782776 0.00038994
16827 3 0.428628 0.113354 0.0247612
16832 3 0.442902 0.282776 0.00038994
16833 3 0.428628 0.613354 0.0247612
17377 1 0.414478 0.443718 0.0491981
17378 1 0.443037 0.782971 0.0494678
17383 1 0.414478 0.943718 0.0491981
17384 1 0.443037 0.282971 0.0494678
16828 3 0.471451 0.120541 0.00038994
16829 3 0.457177 0.451313 0.0247612
16830 3 0.485726 0.789322 0.0247612
16834 3 0.471451 0.620541 0.00038994
16835 3 0.457177 0.951314 0.0247612
16836 3 0.485726 0.289322 0.0247612
17380 1 0.471561 0.12056 0.0494926
17386 1 0.471561 0.62056 0.0494926
17389 1 0.5 0.458334 0.0493805
17895 3 0.171687 0.0688403 0.122246
17901 3 0.171687 0.56884 0.122246
17346 3 0.228785 0.74728 0.0735036
17352 3 0.228785 0.24728 0.0735036
17355 3 0.257334 0.0844866 0.0735036
17361 3 0.257334 0.584486 0.0735036
17896 3 0.214511 0.0765984 0.0978748
17897 3 0.200236 0.405716 0.122246
17898 3 0.228785 0.742857 0.122246
17902 3 0.214511 0.576598 0.0978748
17903 3 0.200236 0.905717 0.122246
17904 3 0.228785 0.242858 0.122246
17905 3 0.24306 0.413786 0.0978748
17907 1 0.257482 0.0807082 0.122537
17911 3 0.24306 0.913786 0.0978748
17913 1 0.257482 0.580708 0.122537
17357 3 0.285883 0.421915 0.0735036
17358 3 0.314432 0.759562 0.0735036
17363 3 0.285883 0.921915 0.0735036
17364 3 0.314432 0.259563 0.0735036
17906 1 0.271765 0.751749 0.0981521
17908 1 0.300336 0.0893574 0.0981537
17909 1 0.28601 0.418537 0.122472
17910 1 0.314551 0.756592 0.122446
17912 1 0.271765 0.251749 0.0981521
17914 1 0.300336 0.589357 0.0981537
17915 1 0.28601 0.918537 0.122472
17916 1 0.314551 0.256592 0.122446
17367 1 0.343087 0.0985682 0.0738132
17369 1 0.371676 0.436084 0.0738341
17373 1 0.343087 0.598568 0.0738132
17375 1 0.371676 0.936084 0.0738341
17917 1 0.328825 0.427359 0.0980975
17918 1 0.357378 0.765841 0.0981304
17919 1 0.343082 0.0948265 0.122453
17920 1 0.385927 0.104189 0.0980772
17921 1 0.371632 0.433455 0.12246
17923 1 0.328825 0.927359 0.0980975
17924 1 0.357378 0.265841 0.0981304
17925 1 0.343082 0.594826 0.122453
17926 1 0.385927 0.604189 0.0980772
17927 1 0.371632 0.933455 0.12246
17370 1 0.400193 0.774079 0.0736682
17376 1 0.400193 0.274079 0.0736682
17379 1 0.428738 0.112768 0.0737737
17385 1 0.428738 0.612768 0.0737737
17922 1 0.400158 0.772099 0.122454
17928 1 0.400158 0.272099 0.122454
17929 1 0.414431 0.442484 0.0980729
17930 1 0.442962 0.78124 0.0981474
17931 1 0.428676 0.110858 0.122479
17935 1 0.414431 0.942484 0.0980729
17936 1 0.442962 0.28124 0.0981474
17937 1 0.428676 0.610858 0.122479
17381 1 0.457265 0.451289 0.0738194
17382 1 0.485766 0.789421 0.0737891
17387 1 0.457265 0.951289 0.0738194
17388 1 0.485766 0.289421 0.0737891
17932 1 0.471493 0.119912 0.0981766
17933 1 0.457208 0.449879 0.122519
17934 1 0.485738 0.788873 0.122537
17938 1 0.471493 0.619912 0.0981766
17939 1 0.457208 0.949879 0.122519
17940 1 0.485738 0.288873 0.122537
17941 1 0.5 0.458334 0.0981758
17947 1 0.5 0.958334 0.0981758
18437 3 0.11459 0.390372 0.170988
18443 3 0.11459 0.890373 0.170988
18438 3 0.143139 0.726752 0.170988
18444 3 0.143139 0.226753 0.170988
18445 3 0.157413 0.397867 0.146617
18446 3 0.185962 0.734646 0.146617
18447 1 0.171645 0.0624329 0.171058
18451 3 0.157413 0.897867 0.146617
18452 3 0.185962 0.234647 0.146617
18453 1 0.171645 0.562433 0.171058
18448 1 0.2147 0.072717 0.146852
18449 1 0.200371 0.400682 0.171257
18450 1 0.22889 0.738225 0.171186
18454 1 0.2147 0.572717 0.146852
18455 1 0.200371 0.900682 0.171257
18456 1 0.22889 0.238225 0.171186
18457 1 0.243171 0.409503 0.146816
18459 1 0.257416 0.0756681 0.171149
18463 1 0.243171 0.909503 0.146816
18465 1 0.257416 0.575668 0.171149
18458 1 0.271701 0.747289 0.146812
18460 1 0.300254 0.0853009 0.146802
18461 1 0.285956 0.413621 0.171139
18462 1 0.314496 0.751907 0.171136
18464 1 0.271701 0.247289 0.146812
18466 1 0.300254 0.585301 0.146802
18467 1 0.285956 0.913621 0.171139
18468 1 0.314496 0.251907 0.171136
18469 1 0.328792 0.423597 0.146796
18470 1 0.357333 0.762215 0.146803
18471 1 0.343038 0.0905542 0.171145
18472 1 0.385871 0.101099 0.146814
18473 1 0.371579 0.429573 0.171162
18475 1 0.328792 0.923597 0.146796
18476 1 0.357333 0.262215 0.146803
18477 1 0.343038 0.590554 0.171145
18478 1 0.385871 0.601099 0.146814
18479 1 0.371579 0.929573 0.171162
18474 1 0.400117 0.768899 0.171184
18480 1 0.400117 0.268899 0.171184
18481 1 0.4144 0.440143 0.146834
18482 1 0.44293 0.779411 0.146864
18483 1 0.428652 0.108496 0.171211
18487 1 0.4144 0.940143 0.146834
18488 1 0.44293 0.279411 0.146864
18489 1 0.428652 0.608496 0.171211
18484 1 0.471465 0.118849 0.14689
18485 1 0.45719 0.448325 0.171238
18486 1 0.48573 0.788312 0.171255
18490 1 0.471465 0.618849 0.14689
18491 1 0.45719 0.948325 0.171238
18492 1 0.48573 0.288312 0.171255
18493 1 0.5 0.458334 0.1469
18499 1 0.5 0.958334 0.1469
18986 3 0.100315 0.719301 0.19536
18987 3 0.0860407 0.0481623 0.219731
18988 3 0.128864 0.0555173 0.19536
18989 3 0.11459 0.384187 0.219731
18992 3 0.100315 0.219302 0.19536
18993 3 0.0860407 0.548162 0.219731
18994 3 0.128864 0.555517 0.19536
18995 3 0.11459 0.884188 0.219731
19537 3 0.0717663 0.376981 0.244102
19538 3 0.100315 0.712794 0.244102
19540 1 0.129002 0.0488731 0.244227
19543 3 0.0717663 0.876981 0.244102
19544 3 0.100315 0.212795 0.244102
19546 1 0.129002 0.548873 0.244227
18990 1 0.143352 0.720713 0.219988
18996 1 0.143352 0.220713 0.219988
18997 1 0.157606 0.392618 0.195606
18998 1 0.186078 0.728946 0.195553
18999 1 0.171826 0.0574504 0.219919
19003 1 0.157606 0.892618 0.195606
19004 1 0.186078 0.228946 0.195553
19005 1 0.171826 0.55745 0.219919
19549 1 0.157512 0.385534 0.244245
19550 1 0.186043 0.722245 0.244226
19555 1 0.157512 0.885534 0.244245
19556 1 0.186043 0.222245 0.244226
19000 1 0.214594 0.0663186 0.195523
19001 1 0.200327 0.394278 0.219869
19002 1 0.228845 0.731615 0.219843
19006 1 0.214594 0.566319 0.195523
19007 1 0.200327 0.894278 0.219869
19008 1 0.228845 0.231615 0.219843
19009 1 0.243133 0.403825 0.195503
19011 1 0.257373 0.0692732 0.219823
19015 1 0.243133 0.903825 0.195503
19017 1 0.257373 0.569273 0.219823
19552 1 0.214558 0.059252 0.24419
19558 1 0.214558 0.559252 0.24419
19561 1 0.243081 0.396668 0.244168
19567 1 0.243081 0.896668 0.244168
19010 1 0.271663 0.741597 0.19548
19012 1 0.300201 0.0797975 0.195476
19013 1 0.285906 0.407336 0.219815
19014 1 0.314444 0.745908 0.219818
19016 1 0.271663 0.241597 0.19548
19018 1 0.300201 0.579798 0.195476
19019 1 0.285906 0.907336 0.219815
19020 1 0.314444 0.245908 0.219818
19562 1 0.27161 0.734552 0.244155
19564 1 0.300143 0.0729572 0.244152
19568 1 0.27161 0.234552 0.244155
19570 1 0.300143 0.572957 0.244152
19021 1 0.328742 0.418455 0.195484
19022 1 0.357284 0.757554 0.1955
19023 1 0.342985 0.0850106 0.219832
19024 1 0.385827 0.0970784 0.195524
19025 1 0.37153 0.424652 0.219856
19027 1 0.328742 0.918455 0.195484
19028 1 0.357284 0.257554 0.1955
19029 1 0.342985 0.585011 0.219832
19030 1 0.385827 0.597078 0.195524
19031 1 0.37153 0.924652 0.219856
19573 1 0.328682 0.411958 0.244161
19574 1 0.357227 0.751601 0.244181
19576 1 0.385776 0.0918954 0.244212
19579 1 0.328682 0.911958 0.244161
19580 1 0.357227 0.251601 0.244181
19582 1 0.385776 0.591895 0.244212
19026 1 0.400076 0.764802 0.219887
19032 1 0.400076 0.264802 0.219887
19033 1 0.414368 0.436983 0.195553
19034 1 0.442911 0.777217 0.195582
19035 1 0.428625 0.105414 0.21992
19039 1 0.414368 0.936983 0.195553
19040 1 0.442911 0.277217 0.195582
19041 1 0.428625 0.605414 0.21992
19585 1 0.41433 0.432816 0.244249
19586 1 0.442885 0.774304 0.244284
19591 1 0.41433 0.932816 0.244249
19592 1 0.442885 0.274304 0.244284
19036 1 0.471455 0.117706 0.195605
19037 1 0.457174 0.446414 0.219949
19038 1 0.485724 0.787666 0.219965
19042 1 0.471455 0.617706 0.195605
19043 1 0.457174 0.946414 0.219949
19044 1 0.485724 0.287666 0.219965
19588 1 0.471443 0.116209 0.24431
19594 1 0.471443 0.616209 0.24431
19045 1 0.5 0.458334 0.195613
19051 1 0.5 0.958334 0.195613
19597 1 0.5 0.458334 0.244319
19530 3 0.0574918 0.705787 0.268473
19536 3 0.0574918 0.205788 0.268473
20080 3 0.0432173 0.0346102 0.292845
20086 3 0.0432173 0.53461 0.292845
19539 3 0.0860407 0.0413695 0.268473
19541 1 0.114725 0.377184 0.268562
19545 3 0.0860407 0.541369 0.268473
19547 1 0.114725 0.877184 0.268562
20089 3 0.0717663 0.369946 0.292845
20090 1 0.100462 0.705523 0.292915
20092 1 0.128935 0.0413359 0.292883
20095 3 0.0717663 0.869946 0.292845
20096 1 0.100462 0.205523 0.292915
20098 1 0.128935 0.541336 0.292883
19542 1 0.143206 0.713365 0.268549
19548 1 0.143206 0.213365 0.268549
19551 1 0.171743 0.0499645 0.268557
19557 1 0.171743 0.549964 0.268557
20101 1 0.157457 0.377526 0.292884
20102 1 0.185977 0.714072 0.292877
20107 1 0.157457 0.877526 0.292884
20108 1 0.185977 0.214072 0.292877
19553 1 0.200266 0.386758 0.268537
19554 1 0.228789 0.723886 0.268514
19559 1 0.200266 0.886758 0.268537
19560 1 0.228789 0.223886 0.268514
19563 1 0.257312 0.061492 0.268497
19569 1 0.257312 0.561492 0.268497
20104 1 0.214499 0.0509379 0.292861
20110 1 0.214499 0.550938 0.292861
20113 1 0.243018 0.38822 0.292843
20119 1 0.243018 0.88822 0.292843
19565 1 0.285841 0.399647 0.268488
19566 1 0.314375 0.738436 0.268489
19571 1 0.285841 0.899647 0.268488
19572 1 0.314375 0.238436 0.268489
20122 1 0.300068 0.564507 0.292821
20114 1 0.27154 0.726039 0.292828
20116 1 0.300068 0.0645067 0.292821
20120 1 0.27154 0.226039 0.292828
20134 1 0.385708 0.584931 0.292875
20132 1 0.35715 0.243836 0.292843
20131 1 0.328604 0.903732 0.292825
19575 1 0.342917 0.0779439 0.268503
19577 1 0.371467 0.418235 0.268529
20128 1 0.385708 0.0849307 0.292875
19581 1 0.342917 0.577944 0.268503
19583 1 0.371467 0.918235 0.268529
20126 1 0.35715 0.743836 0.292843
20125 1 0.328604 0.403732 0.292825
20144 1 0.442847 0.270163 0.292962
20143 1 0.414274 0.927059 0.292918
20138 1 0.442847 0.770163 0.292962
20137 1 0.414274 0.427059 0.292918
19578 1 0.400024 0.759341 0.268566
19584 1 0.400024 0.259341 0.268566
19587 1 0.428587 0.10123 0.268608
19593 1 0.428587 0.60123 0.268608
20146 1 0.471423 0.614037 0.292997
20140 1 0.471423 0.114037 0.292997
19589 1 0.457151 0.44378 0.268643
19590 1 0.485717 0.786765 0.268665
19595 1 0.457151 0.94378 0.268643
19596 1 0.485717 0.286765 0.268665
20149 1 0.5 0.458334 0.29301
20640 1 0.0578063 0.19013 0.366001
20639 3 0.0289429 0.856019 0.365958
20638 3 0.0432173 0.52724 0.341587
20636 3 0.0146684 0.192417 0.341587
20634 1 0.0578063 0.69013 0.366001
20633 3 0.0289429 0.356018 0.365958
20632 3 0.0432173 0.0272404 0.341587
20630 3 0.0146684 0.692417 0.341587
20081 3 0.0289429 0.363477 0.317216
20082 3 0.0574918 0.698559 0.317216
20087 3 0.0289429 0.863478 0.317216
20088 3 0.0574918 0.19856 0.317216
20651 1 0.114745 0.860427 0.36596
20650 1 0.12897 0.532686 0.341586
20649 1 0.0862787 0.525262 0.365982
20648 1 0.100493 0.197156 0.341598
20647 1 0.0721 0.862013 0.341641
20645 1 0.114745 0.360427 0.36596
20644 1 0.12897 0.0326855 0.341586
20643 1 0.0862787 0.0252624 0.365982
20642 1 0.100493 0.697156 0.341598
20641 1 0.0721 0.362013 0.341641
20091 1 0.0862199 0.0338387 0.31727
20093 1 0.114692 0.36931 0.317232
20097 1 0.0862199 0.533839 0.31727
20099 1 0.114692 0.86931 0.317232
20661 1 0.171707 0.531638 0.365927
20660 1 0.185955 0.204714 0.341563
20659 1 0.157456 0.868535 0.341574
20655 1 0.171707 0.0316383 0.365927
20654 1 0.185955 0.704714 0.341563
20653 1 0.157456 0.368535 0.341574
20652 1 0.143217 0.195869 0.365942
20646 1 0.143217 0.695869 0.365942
20094 1 0.143199 0.705111 0.317227
20100 1 0.143199 0.205111 0.317227
20103 1 0.171706 0.0412995 0.31722
20109 1 0.171706 0.5413 0.31722
20673 1 0.257194 0.54123 0.365866
20671 1 0.242963 0.87825 0.341527
20667 1 0.257194 0.0412302 0.365866
20665 1 0.242963 0.37825 0.341527
20664 1 0.228696 0.204238 0.365889
20663 1 0.2002 0.867739 0.365909
20662 1 0.214458 0.541261 0.341546
20658 1 0.228696 0.704238 0.365889
20657 1 0.2002 0.367739 0.365909
20656 1 0.214458 0.0412611 0.341546
20121 1 0.257246 0.552213 0.317174
20105 1 0.200219 0.37785 0.317208
20106 1 0.228731 0.714789 0.317192
20111 1 0.200219 0.87785 0.317208
20112 1 0.228731 0.214789 0.317192
20115 1 0.257246 0.0522129 0.317174
20676 1 0.314206 0.217291 0.365824
20675 1 0.285697 0.878849 0.365844
20674 1 0.299987 0.554048 0.341492
20672 1 0.271472 0.215794 0.341507
20670 1 0.314206 0.717291 0.365824
20669 1 0.285697 0.378849 0.365844
20668 1 0.299987 0.0540484 0.341492
20666 1 0.271472 0.715794 0.341507
20124 1 0.314291 0.229057 0.317153
20123 1 0.285765 0.890256 0.317159
20117 1 0.285765 0.390256 0.317159
20118 1 0.314291 0.729057 0.317153
20687 1 0.371266 0.897704 0.365815
20686 1 0.385608 0.575178 0.341512
20685 1 0.342727 0.556796 0.365813
20684 1 0.35705 0.233485 0.341489
20683 1 0.328511 0.893202 0.341484
20681 1 0.371266 0.397704 0.365815
20680 1 0.385608 0.0751782 0.341512
20679 1 0.342727 0.0567964 0.365813
20678 1 0.35705 0.733485 0.341489
20677 1 0.328511 0.393202 0.341484
20135 1 0.371381 0.909602 0.31718
20133 1 0.342829 0.568777 0.317159
20129 1 0.371381 0.409602 0.31718
20127 1 0.342829 0.0687771 0.317159
20697 1 0.428422 0.585537 0.365882
20696 1 0.442781 0.263746 0.341607
20695 1 0.414185 0.918555 0.341553
20691 1 0.428422 0.0855367 0.365882
20690 1 0.442781 0.763746 0.341607
20689 1 0.414185 0.418555 0.341553
20688 1 0.399829 0.24046 0.365837
20682 1 0.399829 0.74046 0.365837
20145 1 0.428526 0.595139 0.317265
20139 1 0.428526 0.095139 0.317265
20136 1 0.399947 0.251698 0.317217
20130 1 0.399947 0.751698 0.317217
20700 1 0.485679 0.283013 0.365983
20699 1 0.457042 0.933208 0.365941
20698 1 0.471388 0.610556 0.341654
20694 1 0.485679 0.783013 0.365983
20693 1 0.457042 0.433208 0.365941
20692 1 0.471388 0.110556 0.341654
20148 1 0.485704 0.285389 0.317341
20147 1 0.457113 0.93982 0.317312
20142 1 0.485704 0.785389 0.317341
20141 1 0.457113 0.43982 0.317312
20701 1 0.5 0.458334 0.341673
21742 1 0.0435062 0.510502 0.439129
21740 3 0.0146684 0.17708 0.439072
21736 1 0.0435062 0.010502 0.439129
21734 3 0.0146684 0.67708 0.439072
21192 1 0.0577963 0.18216 0.414691
21191 3 0.0289429 0.848128 0.414701
21190 1 0.0432607 0.520347 0.39026
21189 3 0.000393975 0.513966 0.414701
21188 3 0.0146684 0.184921 0.390329
21186 1 0.0577963 0.68216 0.414691
21185 3 0.0289429 0.348127 0.414701
21184 1 0.0432607 0.020347 0.39026
21183 3 0.000393975 0.0139668 0.414701
21182 3 0.0146684 0.68492 0.390329
21754 1 0.128996 0.51331 0.439044
21752 1 0.100508 0.178832 0.439053
21751 1 0.0720138 0.844578 0.439062
21748 1 0.128996 0.0133102 0.439044
21746 1 0.100508 0.678832 0.439053
21745 1 0.0720138 0.344578 0.439062
21203 1 0.114734 0.85105 0.414686
21202 1 0.128976 0.523395 0.390316
21201 1 0.0862364 0.516434 0.414687
21200 1 0.100489 0.188423 0.390333
21199 1 0.0719977 0.853805 0.390335
21197 1 0.114734 0.35105 0.414686
21196 1 0.128976 0.023395 0.390316
21195 1 0.0862364 0.0164342 0.414687
21194 1 0.100489 0.688423 0.390333
21193 1 0.0719977 0.353805 0.390335
21764 1 0.185981 0.182851 0.439012
21763 1 0.15749 0.847985 0.43903
21758 1 0.185981 0.682851 0.439012
21757 1 0.15749 0.347985 0.43903
21213 1 0.171718 0.521056 0.414654
21212 1 0.185955 0.19432 0.39028
21211 1 0.157465 0.858707 0.390299
21207 1 0.171718 0.0210555 0.414654
21206 1 0.185955 0.69432 0.39028
21205 1 0.157465 0.358707 0.390299
21204 1 0.143227 0.185933 0.414672
21198 1 0.143227 0.685933 0.414672
21775 1 0.242957 0.853396 0.438967
21769 1 0.242957 0.353396 0.438967
21766 1 0.21447 0.517963 0.438991
21760 1 0.21447 0.0179626 0.438991
21225 1 0.257182 0.528403 0.414585
21223 1 0.242936 0.866671 0.390235
21219 1 0.257182 0.028403 0.414585
21217 1 0.242936 0.366671 0.390235
21216 1 0.228696 0.192214 0.414611
21215 1 0.200208 0.856463 0.414634
21214 1 0.214445 0.530282 0.390258
21210 1 0.228696 0.692214 0.414611
21209 1 0.200208 0.356463 0.414634
21208 1 0.214445 0.0302822 0.390258
21778 1 0.299919 0.525656 0.438911
21776 1 0.27144 0.189246 0.438941
21772 1 0.299919 0.0256557 0.438911
21770 1 0.27144 0.689246 0.438941
21228 1 0.314153 0.202665 0.414527
21227 1 0.285668 0.865152 0.414557
21226 1 0.299923 0.54122 0.390183
21224 1 0.271428 0.203595 0.390209
21222 1 0.314153 0.702665 0.414527
21221 1 0.285668 0.365152 0.414557
21220 1 0.299923 0.0412196 0.390183
21218 1 0.271428 0.703595 0.390209
21790 1 0.385352 0.541274 0.438804
21788 1 0.356871 0.201205 0.438843
21787 1 0.328396 0.862858 0.438879
21784 1 0.385352 0.0412743 0.438804
21782 1 0.356871 0.701206 0.438843
21781 1 0.328396 0.362858 0.438879
21239 1 0.371145 0.881291 0.41447
21238 1 0.385473 0.561196 0.390136
21237 1 0.342644 0.541231 0.414497
21236 1 0.356938 0.219609 0.390141
21235 1 0.328424 0.879781 0.390158
21233 1 0.371145 0.381291 0.41447
21232 1 0.385473 0.0611958 0.390136
21231 1 0.342644 0.0412312 0.414497
21230 1 0.356938 0.719609 0.390141
21229 1 0.328424 0.379781 0.390158
21800 1 0.442403 0.23193 0.43872
21799 1 0.413851 0.88406 0.438764
21794 1 0.442403 0.73193 0.43872
21793 1 0.413851 0.38406 0.438764
21249 1 0.428237 0.569273 0.414451
21248 1 0.442656 0.252761 0.390199
21247 1 0.414041 0.905258 0.390153
21243 1 0.428237 0.0692732 0.414451
21242 1 0.442656 0.752761 0.390199
21241 1 0.414041 0.405258 0.390153
21240 1 0.399669 0.223554 0.414452
21234 1 0.399669 0.723554 0.414452
21802 1 0.47112 0.5897 0.43876
21796 1 0.47112 0.0897003 0.43876
21252 1 0.485623 0.278146 0.414564
21251 1 0.456887 0.920532 0.414494
21250 1 0.471317 0.604204 0.390262
21246 1 0.485623 0.778145 0.414564
21245 1 0.456887 0.420532 0.414494
21244 1 0.471317 0.104204 0.390262
21805 1 0.5 0.458334 0.438848
21253 1 0.5 0.458334 0.39029
21744 1 0.0578626 0.172963 0.463461
21743 3 0.0289429 0.839932 0.463443
21741 3 0.000393975 0.506223 0.463443
21738 1 0.0578626 0.672963 0.463461
21737 3 0.0289429 0.339931 0.463443
21735 3 0.000393975 0.00622309 0.463443
22286 3 0.0146684 0.669031 0.487814
22288 1 0.0434895 0.0016487 0.487814
22292 3 0.0146684 0.169031 0.487814
22294 1 0.0434895 0.501649 0.487814
21755 1 0.114777 0.84091 0.463418
21753 1 0.0862955 0.506789 0.463432
21749 1 0.114777 0.34091 0.463418
21747 1 0.0862955 0.00678931 0.463432
22297 1 0.072047 0.335263 0.487812
22298 1 0.100552 0.668922 0.487794
22300 1 0.129045 0.0027099 0.487781
22303 1 0.072047 0.835263 0.487812
22304 1 0.100552 0.168922 0.487794
22306 1 0.129045 0.50271 0.487781
21765 1 0.171762 0.509535 0.46339
21759 1 0.171762 0.0095349 0.46339
21756 1 0.143268 0.175176 0.463405
21750 1 0.143268 0.675176 0.463405
22309 1 0.157543 0.336592 0.487767
22310 1 0.186041 0.670526 0.48775
22315 1 0.157543 0.836592 0.487767
22316 1 0.186041 0.170526 0.48775
21777 1 0.257232 0.51368 0.463327
21771 1 0.257232 0.01368 0.463327
21768 1 0.228745 0.178728 0.46335
21767 1 0.200254 0.844036 0.463371
21762 1 0.228745 0.678728 0.46335
21761 1 0.200254 0.344036 0.463371
22312 1 0.214538 0.00453565 0.487732
22318 1 0.214538 0.504536 0.487732
22321 1 0.243034 0.338644 0.487712
22327 1 0.243034 0.838644 0.487712
21780 1 0.314191 0.184775 0.463275
21779 1 0.285715 0.848979 0.463302
21774 1 0.314191 0.684775 0.463275
21773 1 0.285715 0.348979 0.463302
22322 1 0.271526 0.67289 0.487692
22324 1 0.300013 0.00732991 0.487671
22328 1 0.271526 0.17289 0.487692
22330 1 0.300013 0.50733 0.487671
21791 1 0.371118 0.859004 0.463203
21789 1 0.342659 0.521314 0.463242
21785 1 0.371118 0.359004 0.463203
21783 1 0.342659 0.0213134 0.463242
22333 1 0.328492 0.342077 0.487648
22334 1 0.356958 0.677326 0.487623
22336 1 0.385403 0.0133756 0.487593
22339 1 0.328492 0.842077 0.487648
22340 1 0.356958 0.177326 0.487623
22342 1 0.385403 0.513375 0.487593
21801 1 0.428013 0.541355 0.463084
21795 1 0.428013 0.0413548 0.463084
21792 1 0.399567 0.198565 0.463155
21786 1 0.399567 0.698565 0.463155
22345 1 0.413806 0.350795 0.48755
22346 1 0.442168 0.690868 0.487486
22351 1 0.413806 0.850795 0.48755
22352 1 0.442168 0.190868 0.487486
21804 1 0.485422 0.262628 0.46304
21803 1 0.456529 0.891943 0.462965
21798 1 0.485422 0.762628 0.46304
21797 1 0.456529 0.391942 0.462965
22348 1 0.470619 0.0414348 0.487332
22354 1 0.470619 0.541435 0.487332
22357 1 0.5 0.458334 0.487382
22287 3 0.000393975 0.99836 0.512186
22289 3 0.0289429 0.331593 0.512186
22290 1 0.0578659 0.663898 0.512176
22293 3 0.000393975 0.498359 0.512186
22295 3 0.0289429 0.831594 0.512186
22296 1 0.0578659 0.163898 0.512176
22838 3 0.0146684 0.660934 0.536557
22839 3 0.000393975 0.990529 0.560928
22840 1 0.043498 0.992982 0.536542
22841 3 0.0289429 0.323293 0.560928
22842 1 0.0578904 0.655163 0.56088
22844 3 0.0146684 0.160934 0.536557
22845 3 0.000393975 0.490528 0.560928
22846 1 0.043498 0.492982 0.536542
22847 3 0.0289429 0.823294 0.560928
22848 1 0.0578904 0.155163 0.56088
22299 1 0.0863246 0.997204 0.512166
22301 1 0.114821 0.330636 0.512155
22305 1 0.0863246 0.497204 0.512166
22307 1 0.114821 0.830636 0.512155
22849 1 0.0720682 0.326048 0.536529
22850 1 0.100586 0.65905 0.536525
22851 1 0.0863494 0.987829 0.56089
22852 1 0.129089 0.992061 0.536517
22853 1 0.114849 0.320515 0.56089
22855 1 0.0720682 0.826048 0.536529
22856 1 0.100586 0.15905 0.536525
22857 1 0.0863494 0.487829 0.56089
22858 1 0.129089 0.492061 0.536517
22859 1 0.114849 0.820515 0.56089
22302 1 0.143321 0.664087 0.512143
22308 1 0.143321 0.164087 0.512143
22311 1 0.171825 0.997512 0.512128
22317 1 0.171825 0.497512 0.512128
22854 1 0.143361 0.653138 0.560877
22860 1 0.143361 0.153138 0.560877
22861 1 0.157599 0.325043 0.536503
22862 1 0.186112 0.657925 0.536487
22863 1 0.17188 0.985599 0.56086
22867 1 0.157599 0.825043 0.536503
22868 1 0.186112 0.157925 0.536487
22869 1 0.17188 0.485599 0.56086
22313 1 0.20033 0.330914 0.512111
22314 1 0.228835 0.664282 0.512094
22319 1 0.20033 0.830914 0.512111
22320 1 0.228835 0.164282 0.512094
22323 1 0.257339 0.997599 0.512077
22329 1 0.257339 0.497599 0.512077
22864 1 0.214626 0.990677 0.53647
22865 1 0.200403 0.317856 0.560843
22866 1 0.228929 0.649837 0.560828
22870 1 0.214626 0.490677 0.53647
22871 1 0.200403 0.817856 0.560843
22872 1 0.228929 0.149837 0.560828
22873 1 0.243142 0.323239 0.536455
22875 1 0.257455 0.981433 0.560818
22879 1 0.243142 0.823239 0.536455
22881 1 0.257455 0.481433 0.560818
22325 1 0.28584 0.330853 0.512061
22326 1 0.314337 0.664024 0.512047
22331 1 0.28584 0.830853 0.512061
22332 1 0.314337 0.164024 0.512047
22874 1 0.271657 0.655542 0.536443
22876 1 0.30017 0.987491 0.536435
22877 1 0.285979 0.312523 0.560813
22878 1 0.314503 0.642911 0.560815
22880 1 0.271657 0.155542 0.536443
22882 1 0.30017 0.487491 0.536435
22883 1 0.285979 0.812523 0.560813
22884 1 0.314503 0.142911 0.560815
22335 1 0.342828 0.997089 0.512036
22337 1 0.371307 0.329933 0.512028
22341 1 0.342828 0.497089 0.512036
22343 1 0.371307 0.829933 0.512028
22885 1 0.328681 0.318931 0.536432
22886 1 0.357189 0.649539 0.536439
22887 1 0.343024 0.972242 0.560829
22888 1 0.385693 0.978631 0.536463
22889 1 0.371543 0.299877 0.560863
22891 1 0.328681 0.818931 0.536432
22892 1 0.357189 0.149538 0.536439
22893 1 0.343024 0.472242 0.560829
22894 1 0.385693 0.478631 0.536463
22895 1 0.371543 0.799877 0.560863
22338 1 0.399766 0.662241 0.512029
22344 1 0.399766 0.162241 0.512029
22347 1 0.428201 0.993163 0.512046
22353 1 0.428201 0.493163 0.512046
22890 1 0.400058 0.62467 0.560934
22896 1 0.400058 0.12467 0.560934
22897 1 0.414195 0.304798 0.536524
22898 1 0.442718 0.624747 0.536654
22899 1 0.428571 0.944624 0.56107
22903 1 0.414195 0.804797 0.536524
22904 1 0.442718 0.124748 0.536654
22905 1 0.428571 0.444624 0.56107
22349 1 0.456683 0.320347 0.512114
22350 1 0.485357 0.624865 0.512386
22355 1 0.456683 0.820347 0.512114
22356 1 0.485357 0.124865 0.512386
22900 1 0.47126 0.929253 0.537001
22901 1 0.457079 0.256356 0.56135
22902 1 0.485639 0.558785 0.561704
22906 1 0.47126 0.429253 0.537001
22907 1 0.457079 0.756356 0.56135
22908 1 0.485639 0.0587851 0.561704
22909 1 0.5 0.208333 0.537492
23390 3 0.0146684 0.652953 0.585299
23391 3 0.000393975 0.982877 0.609671
23392 1 0.0435274 0.984747 0.58521
23393 3 0.0289429 0.315206 0.609671
23394 1 0.0578553 0.647095 0.609596
23396 3 0.0146684 0.152954 0.585299
23397 3 0.000393975 0.482876 0.609671
23398 1 0.0435274 0.484747 0.58521
23399 3 0.0289429 0.815207 0.609671
23400 1 0.0578553 0.147095 0.609596
23401 1 0.0720753 0.317258 0.585254
23402 1 0.100591 0.64957 0.585262
23403 1 0.0863026 0.979133 0.609637
23404 1 0.129102 0.981802 0.585252
23405 1 0.114828 0.31103 0.609626
23407 1 0.0720753 0.817258 0.585254
23408 1 0.100591 0.14957 0.585262
23409 1 0.0863026 0.479133 0.609637
23410 1 0.129102 0.481802 0.585252
23411 1 0.114828 0.81103 0.609626
23406 1 0.143366 0.642858 0.609599
23412 1 0.143366 0.142858 0.609599
23413 1 0.157632 0.313922 0.585231
23414 1 0.186165 0.645791 0.585212
23415 1 0.171912 0.974429 0.609576
23419 1 0.157632 0.813922 0.585231
23420 1 0.186165 0.145791 0.585212
23421 1 0.171912 0.474429 0.609576
23416 1 0.214699 0.977333 0.585197
23417 1 0.200455 0.305644 0.609561
23418 1 0.228993 0.636414 0.609553
23422 1 0.214699 0.477333 0.585197
23423 1 0.200455 0.805644 0.609561
23424 1 0.228993 0.136414 0.609553
23425 1 0.243232 0.30844 0.585187
23427 1 0.25753 0.966616 0.609551
23431 1 0.243232 0.80844 0.585187
23433 1 0.25753 0.466616 0.609551
23426 1 0.271764 0.638978 0.585184
23428 1 0.300295 0.968753 0.585189
23429 1 0.286063 0.296084 0.609558
23430 1 0.314593 0.624568 0.609577
23432 1 0.271764 0.138978 0.585184
23434 1 0.300295 0.468753 0.585189
23435 1 0.286063 0.796084 0.609558
23436 1 0.314593 0.124568 0.609577
23437 1 0.328822 0.297461 0.585207
23438 1 0.357346 0.624605 0.585244
23439 1 0.343117 0.951705 0.609613
23440 1 0.385864 0.949395 0.585313
23441 1 0.371635 0.276975 0.609677
23443 1 0.328822 0.797461 0.585207
23444 1 0.357346 0.124605 0.585244
23445 1 0.343117 0.451705 0.609613
23446 1 0.385864 0.449395 0.585313
23447 1 0.371635 0.776975 0.609677
23442 1 0.400144 0.599749 0.609779
23448 1 0.400144 0.0997487 0.609779
23449 1 0.414374 0.270718 0.585432
23450 1 0.442877 0.587203 0.585634
23451 1 0.428648 0.919439 0.60993
23455 1 0.414374 0.770718 0.585432
23456 1 0.442877 0.0872028 0.585634
23457 1 0.428648 0.419439 0.60993
23452 1 0.471402 0.898762 0.585885
23453 1 0.457164 0.236096 0.610112
23454 1 0.485715 0.55102 0.610237
23458 1 0.471402 0.398763 0.585885
23459 1 0.457164 0.736096 0.610112
23460 1 0.485715 0.0510199 0.610237
23467 1 0.5 0.708333 0.585989
23942 3 0.0146684 0.645241 0.634042
23944 3 0.0432173 0.977306 0.634042
23945 3 0.0289429 0.307482 0.658413
23946 1 0.0576053 0.640553 0.658416
23948 3 0.0146684 0.145242 0.634042
23950 3 0.0432173 0.477305 0.634042
23951 3 0.0289429 0.807482 0.658413
23952 1 0.0576053 0.140553 0.658416
24496 3 0.0432173 0.969622 0.682784
24502 3 0.0432173 0.469622 0.682784
23953 1 0.0720083 0.309511 0.633983
23954 1 0.100524 0.640861 0.634009
23955 1 0.0862682 0.97106 0.65839
23956 1 0.129089 0.972335 0.633963
23957 1 0.114819 0.302224 0.658326
23959 1 0.0720083 0.809511 0.633983
23960 1 0.100524 0.140861 0.634009
23961 1 0.0862682 0.47106 0.65839
23962 1 0.129089 0.472335 0.633963
23963 1 0.114819 0.802224 0.658326
24505 1 0.0719114 0.30159 0.68285
24506 1 0.100633 0.632174 0.68269
24508 1 0.12917 0.963404 0.682626
24511 1 0.0719114 0.80159 0.68285
24512 1 0.100633 0.132174 0.68269
24514 1 0.12917 0.463404 0.682626
23958 1 0.143393 0.63339 0.658283
23964 1 0.143393 0.13339 0.658283
23965 1 0.15765 0.303676 0.633934
23966 1 0.186201 0.634654 0.63392
23967 1 0.171947 0.964233 0.658272
23971 1 0.15765 0.803676 0.633934
23972 1 0.186201 0.134654 0.63392
23973 1 0.171947 0.464233 0.658272
24517 1 0.157704 0.294234 0.682621
24518 1 0.186233 0.624604 0.68263
24523 1 0.157704 0.794234 0.682621
24524 1 0.186233 0.124604 0.68263
23968 1 0.214743 0.965202 0.633914
23969 1 0.200488 0.294643 0.658273
23970 1 0.229023 0.624576 0.658277
23974 1 0.214743 0.465202 0.633914
23975 1 0.200488 0.794643 0.658273
23976 1 0.229023 0.124576 0.658277
23977 1 0.24328 0.295216 0.633915
23979 1 0.257555 0.953925 0.658286
23983 1 0.24328 0.795216 0.633915
23985 1 0.257555 0.453925 0.658286
24520 1 0.21476 0.95453 0.682639
24526 1 0.21476 0.45453 0.682639
24529 1 0.243287 0.283956 0.682648
24535 1 0.243287 0.783956 0.682648
23978 1 0.271814 0.624565 0.633923
23980 1 0.300345 0.953045 0.633941
23981 1 0.286083 0.282523 0.658304
23982 1 0.314609 0.610167 0.658335
23984 1 0.271814 0.124565 0.633923
23986 1 0.300345 0.453045 0.633941
23987 1 0.286083 0.782523 0.658304
23988 1 0.314609 0.110167 0.658335
24530 1 0.271814 0.612741 0.682664
24532 1 0.30034 0.940718 0.682691
24536 1 0.271814 0.112741 0.682664
24538 1 0.30034 0.440718 0.682691
23989 1 0.328869 0.280392 0.633976
23990 1 0.357386 0.60627 0.634033
23991 1 0.343127 0.936643 0.658385
23992 1 0.385896 0.930306 0.634119
23993 1 0.371639 0.261716 0.658458
23995 1 0.328869 0.780392 0.633976
23996 1 0.357386 0.10627 0.634033
23997 1 0.343127 0.436643 0.658385
23998 1 0.385896 0.430306 0.634119
23999 1 0.371639 0.761716 0.658458
24541 1 0.32886 0.267738 0.682734
24542 1 0.357375 0.593658 0.682796
24544 1 0.385887 0.91839 0.682877
24547 1 0.32886 0.767738 0.682734
24548 1 0.357375 0.0936578 0.682796
24550 1 0.385887 0.41839 0.682877
23994 1 0.400147 0.585243 0.658556
24000 1 0.400147 0.0852425 0.658556
24001 1 0.414403 0.252222 0.634239
24002 1 0.442915 0.572072 0.63438