ITEM: TIMESTEP
37
ITEM: NUMBER OF ATOMS
2354
ITEM: BOX BOUNDS ss pp ss
-4.0972079223999998e+01 4.1846228795000002e+01
-4.1208122699999999e-01 4.5329187729999996e+00
-4.1585736442000005e+01 4.1249249110000001e+01
ITEM: ATOMS id type xs ys zs
17356 3 0.295933 0.0920927 0.0491324
17362 3 0.295933 0.592092 0.0491324
16815 3 0.338154 0.0997802 0.0247612
16817 3 0.366301 0.43742 0.0247612
16821 3 0.338154 0.59978 0.0247612
16823 3 0.366301 0.937421 0.0247612
17365 3 0.32408 0.429665 0.0491324
17366 3 0.352228 0.767414 0.0491324
17368 3 0.380375 0.105324 0.0491324
17371 3 0.32408 0.929665 0.0491324
17372 3 0.352228 0.267415 0.0491324
17374 3 0.380375 0.605324 0.0491324
16818 3 0.394448 0.775191 0.0247612
16824 3 0.394448 0.275191 0.0247612
16826 3 0.436669 0.7825 0.00038994
16827 3 0.422595 0.113067 0.0247612
16832 3 0.436669 0.282501 0.00038994
16833 3 0.422595 0.613067 0.0247612
17377 1 0.408646 0.443408 0.0491979
17378 1 0.436803 0.782665 0.0494669
17383 1 0.408646 0.943408 0.0491979
17384 1 0.436803 0.282665 0.0494669
16828 3 0.464816 0.120263 0.00038994
16829 3 0.450743 0.451022 0.0247612
16830 3 0.47889 0.789029 0.0247612
16834 3 0.464816 0.620263 0.00038994
16835 3 0.450743 0.951023 0.0247612
16836 3 0.47889 0.289029 0.0247612
17380 1 0.464927 0.120259 0.0494914
17386 1 0.464927 0.620259 0.0494914
16837 3 0.492963 0.458054 0.00038994
16843 3 0.492963 0.958055 0.00038994
17389 1 0.492966 0.458043 0.0493795
17395 1 0.492966 0.958043 0.0493795
17895 3 0.169271 0.0686273 0.122246
17901 3 0.169271 0.568627 0.122246
17346 3 0.225565 0.747045 0.0735036
17352 3 0.225565 0.247046 0.0735036
17355 3 0.253713 0.084238 0.0735036
17361 3 0.253713 0.584237 0.0735036
17896 3 0.211492 0.0763657 0.0978748
17897 3 0.197418 0.405487 0.122246
17898 3 0.225565 0.742611 0.122246
17902 3 0.211492 0.576365 0.0978748
17903 3 0.197418 0.905488 0.122246
17904 3 0.225565 0.242612 0.122246
17905 3 0.239639 0.413538 0.0978748
17907 1 0.253867 0.0803824 0.122426
17911 3 0.239639 0.913538 0.0978748
17913 1 0.253867 0.580382 0.122426
17357 3 0.28186 0.421652 0.0735036
17358 3 0.310007 0.759286 0.0735036
17363 3 0.28186 0.921653 0.0735036
17364 3 0.310007 0.259287 0.0735036
17906 1 0.267945 0.750673 0.0978894
17908 1 0.296151 0.0897845 0.0981278
17909 1 0.282008 0.41829 0.122433
17910 1 0.310155 0.756565 0.122499
17912 1 0.267945 0.250673 0.0978894
17914 1 0.296151 0.589784 0.0981278
17915 1 0.282008 0.91829 0.122433
17916 1 0.310155 0.256565 0.122499
17367 1 0.338241 0.0979011 0.073805
17369 1 0.36644 0.435678 0.0738356
17373 1 0.338241 0.597901 0.073805
17375 1 0.36644 0.935678 0.0738356
17917 1 0.324285 0.427419 0.0982278
17918 1 0.352374 0.765413 0.0981435
17919 1 0.338299 0.0948062 0.122512
17920 1 0.380509 0.103786 0.0980798
17921 1 0.366429 0.433161 0.122478
17923 1 0.324285 0.927419 0.0982277
17924 1 0.352374 0.265413 0.0981435
17925 1 0.338299 0.594806 0.122512
17926 1 0.380509 0.603786 0.0980798
17927 1 0.366429 0.933161 0.122478
17370 1 0.394561 0.773726 0.0736684
17376 1 0.394561 0.273726 0.0736684
17379 1 0.422708 0.112432 0.0737725
17385 1 0.422708 0.612432 0.0737725
17922 1 0.394543 0.771766 0.122458
17928 1 0.394543 0.271766 0.122458
17929 1 0.408607 0.442121 0.0980721
17930 1 0.436735 0.780907 0.0981451
17931 1 0.422656 0.110539 0.122478
17935 1 0.408607 0.942121 0.0980721
17936 1 0.436735 0.280907 0.0981451
17937 1 0.422656 0.610539 0.122478
17381 1 0.450834 0.450973 0.0738176
17382 1 0.478935 0.789122 0.0737867
17387 1 0.450834 0.950973 0.0738176
17388 1 0.478935 0.289122 0.0737867
17932 1 0.464865 0.119604 0.0981735
17933 1 0.450784 0.449576 0.122516
17934 1 0.478911 0.788594 0.122533
17938 1 0.464865 0.619604 0.0981735
17939 1 0.450784 0.949576 0.122516
17940 1 0.478911 0.288594 0.122533
17941 1 0.49297 0.458051 0.0981725
17947 1 0.49297 0.958051 0.0981725
18437 3 0.112977 0.39019 0.170988
18443 3 0.112977 0.890191 0.170988
18438 3 0.141124 0.726554 0.170988
18444 3 0.141124 0.226555 0.170988
18445 3 0.155198 0.39766 0.146617
18446 3 0.183345 0.734423 0.146617
18447 1 0.169231 0.0622133 0.171057
18451 3 0.155198 0.897661 0.146617
18452 3 0.183345 0.234423 0.146617
18453 1 0.169231 0.562213 0.171057
18448 1 0.211682 0.0724804 0.146845
18449 1 0.197556 0.400457 0.171249
18450 1 0.22568 0.738032 0.171158
18454 1 0.211682 0.57248 0.146845
18455 1 0.197556 0.900457 0.171249
18456 1 0.22568 0.238032 0.171158
18457 1 0.239767 0.409315 0.146763
18459 1 0.2538 0.0754455 0.171103
18463 1 0.239767 0.909315 0.146763
18465 1 0.2538 0.575445 0.171103
18458 1 0.267879 0.746995 0.146735
18460 1 0.296027 0.0850615 0.146789
18461 1 0.281926 0.413307 0.171106
18462 1 0.310071 0.751665 0.171138
18464 1 0.267879 0.246995 0.146735
18466 1 0.296027 0.585062 0.146789
18467 1 0.281926 0.913307 0.171106
18468 1 0.310071 0.251665 0.171138
18469 1 0.324184 0.423476 0.146832
18470 1 0.352332 0.762109 0.146835
18471 1 0.338223 0.090416 0.171165
18472 1 0.380463 0.100879 0.146827
18473 1 0.366369 0.429438 0.171178
18475 1 0.324184 0.923476 0.146832
18476 1 0.352332 0.262109 0.146835
18477 1 0.338223 0.590416 0.171165
18478 1 0.380463 0.600879 0.146827
18479 1 0.366369 0.929438 0.171178
18474 1 0.394505 0.768713 0.171192
18480 1 0.394505 0.268713 0.171192
18481 1 0.408586 0.439882 0.146837
18482 1 0.436711 0.779138 0.146863
18483 1 0.422636 0.108272 0.171213
18487 1 0.408586 0.939882 0.146837
18488 1 0.436711 0.279138 0.146863
18489 1 0.422636 0.608272 0.171213
18484 1 0.464842 0.11859 0.146887
18485 1 0.45077 0.4481 0.171236
18486 1 0.478906 0.788088 0.171251
18490 1 0.464842 0.61859 0.146887
18491 1 0.45077 0.9481 0.171236
18492 1 0.478906 0.288088 0.171251
18493 1 0.492974 0.458079 0.146895
18499 1 0.492974 0.958079 0.146895
18986 3 0.0989034 0.71913 0.19536
18987 3 0.0848298 0.0480023 0.219731
18988 3 0.127051 0.0553295 0.19536
18989 3 0.112977 0.384012 0.219731
18992 3 0.0989034 0.21913 0.19536
18993 3 0.0848298 0.548002 0.219731
18994 3 0.127051 0.555329 0.19536
18995 3 0.112977 0.884012 0.219731
19537 3 0.0707563 0.376834 0.244102
19538 3 0.0989034 0.712632 0.244102
19540 1 0.127186 0.0487038 0.244227
19543 3 0.0707563 0.876834 0.244102
19544 3 0.0989034 0.212633 0.244102
19546 1 0.127186 0.548704 0.244227
18990 1 0.141335 0.720534 0.219987
18996 1 0.141335 0.220534 0.219987
18997 1 0.155389 0.392419 0.195604
18998 1 0.183463 0.728738 0.195547
18999 1 0.16941 0.0572674 0.219915
19003 1 0.155389 0.892419 0.195604
19004 1 0.183463 0.228738 0.195547
19005 1 0.16941 0.557267 0.219915
19549 1 0.155297 0.385368 0.244242
19550 1 0.183428 0.722086 0.244219
19555 1 0.155297 0.885368 0.244242
19556 1 0.183428 0.222086 0.244219
19000 1 0.211581 0.0661269 0.195507
19001 1 0.197512 0.394097 0.219858
19002 1 0.225629 0.731432 0.219824
19006 1 0.211581 0.566127 0.195507
19007 1 0.197512 0.894097 0.219858
19008 1 0.225629 0.231432 0.219824
19009 1 0.239718 0.403623 0.195473
19011 1 0.253753 0.0690576 0.219799
19015 1 0.239718 0.903623 0.195473
19017 1 0.253753 0.569058 0.219799
19552 1 0.211542 0.0590965 0.244176
19558 1 0.211542 0.559096 0.244176
19561 1 0.239664 0.396499 0.244149
19567 1 0.239664 0.896499 0.244149
19010 1 0.267839 0.741339 0.195448
19012 1 0.295973 0.0795198 0.195459
19013 1 0.281882 0.40709 0.219794
19014 1 0.310019 0.745677 0.219806
19016 1 0.267839 0.241339 0.195448
19018 1 0.295973 0.57952 0.195459
19019 1 0.281882 0.90709 0.219794
19020 1 0.310019 0.245677 0.219806
19562 1 0.267789 0.734357 0.244134
19564 1 0.29592 0.072753 0.244135
19568 1 0.267789 0.234357 0.244134
19570 1 0.29592 0.572753 0.244135
19021 1 0.324119 0.418241 0.195485
19022 1 0.352267 0.757403 0.195509
19023 1 0.338164 0.0848282 0.21983
19024 1 0.380412 0.0969352 0.195531
19025 1 0.366313 0.424507 0.219858
19027 1 0.324119 0.918241 0.195485
19028 1 0.352267 0.257403 0.195509
19029 1 0.338164 0.584828 0.21983
19030 1 0.380412 0.596935 0.195531
19031 1 0.366313 0.924507 0.219858
19573 1 0.32406 0.411777 0.24415
19574 1 0.352207 0.751452 0.244176
19576 1 0.380359 0.0917732 0.244209
19579 1 0.32406 0.911777 0.24415
19580 1 0.352207 0.251452 0.244176
19582 1 0.380359 0.591773 0.244209
19026 1 0.39446 0.764667 0.219888
19032 1 0.39446 0.264667 0.219888
19033 1 0.408553 0.436814 0.195556
19034 1 0.436693 0.777035 0.195581
19035 1 0.422608 0.105276 0.219919
19039 1 0.408553 0.936814 0.195556
19040 1 0.436693 0.277035 0.195581
19041 1 0.422608 0.605276 0.219919
19585 1 0.408512 0.432707 0.244245
19586 1 0.436667 0.774187 0.244279
19591 1 0.408512 0.932707 0.244245
19592 1 0.436667 0.274187 0.244279
19036 1 0.464834 0.117519 0.195602
19037 1 0.450754 0.446263 0.219945
19038 1 0.478901 0.787496 0.21996
19042 1 0.464834 0.617519 0.195602
19043 1 0.450754 0.946263 0.219945
19044 1 0.478901 0.287496 0.21996
19588 1 0.464821 0.116069 0.244304
19594 1 0.464821 0.616069 0.244304
19045 1 0.492975 0.458132 0.195608
19051 1 0.492975 0.958132 0.195608
19597 1 0.492975 0.458181 0.244313
19603 1 0.492975 0.958181 0.244313
19530 3 0.0566827 0.705654 0.268473
19536 3 0.0566827 0.205655 0.268473
20080 3 0.0426091 0.0344918 0.292845
20086 3 0.0426091 0.534491 0.292845
19539 3 0.0848298 0.0412221 0.268473
19541 1 0.11311 0.377022 0.268563
19545 3 0.0848298 0.541222 0.268473
19547 1 0.11311 0.877022 0.268563
20089 3 0.0707563 0.369814 0.292845
20090 1 0.0990466 0.705356 0.292917
20092 1 0.12712 0.0411817 0.292884
20095 3 0.0707563 0.869815 0.292845
20096 1 0.0990466 0.205356 0.292917
20098 1 0.12712 0.541182 0.292884
19542 1 0.141191 0.713208 0.268548
19548 1 0.141191 0.213208 0.268548
19551 1 0.169327 0.0498239 0.268552
19557 1 0.169327 0.549824 0.268552
20101 1 0.155241 0.377402 0.292881
20102 1 0.183362 0.713978 0.292869
20107 1 0.155241 0.877402 0.292881
20108 1 0.183362 0.213978 0.292869
19553 1 0.19745 0.386634 0.268526
19554 1 0.225573 0.723767 0.268499
19559 1 0.19745 0.886634 0.268526
19560 1 0.225573 0.223767 0.268499
19563 1 0.253695 0.0613601 0.268478
19569 1 0.253695 0.56136 0.268478
20104 1 0.211483 0.0508669 0.292848
20110 1 0.211483 0.550867 0.292848
20113 1 0.239602 0.388157 0.292825
20119 1 0.239602 0.888157 0.292825
19565 1 0.281821 0.399499 0.268469
19566 1 0.309955 0.738285 0.268474
19571 1 0.281821 0.899499 0.268469
19572 1 0.309955 0.238285 0.268474
20114 1 0.267723 0.725967 0.292808
20116 1 0.295849 0.0644191 0.292802
20120 1 0.267723 0.225967 0.292808
20122 1 0.295849 0.564419 0.292802
20134 1 0.38029 0.584866 0.292864
19575 1 0.338098 0.0778089 0.268492
20132 1 0.352132 0.243758 0.29283
19577 1 0.366249 0.418125 0.268521
20131 1 0.323985 0.90364 0.292809
19581 1 0.338098 0.577809 0.268492
19583 1 0.366249 0.918125 0.268521
20128 1 0.38029 0.0848664 0.292864
20126 1 0.352132 0.743758 0.29283
20125 1 0.323985 0.40364 0.292809
20144 1 0.436627 0.270091 0.292954
20143 1 0.408456 0.926998 0.292908
20138 1 0.436627 0.770091 0.292954
20137 1 0.408456 0.426999 0.292908
19578 1 0.394407 0.759248 0.268559
19584 1 0.394407 0.259248 0.268559
19587 1 0.422568 0.101141 0.268601
19593 1 0.422568 0.601141 0.268601
20146 1 0.4648 0.613934 0.292989
20140 1 0.4648 0.113934 0.292989
19589 1 0.45073 0.443674 0.268636
19590 1 0.478893 0.786634 0.268657
19595 1 0.45073 0.943674 0.268636
19596 1 0.478893 0.286634 0.268657
20149 1 0.492974 0.458199 0.293002
20155 1 0.492974 0.958198 0.293002
20640 1 0.0569717 0.189665 0.366031
20639 3 0.0285356 0.855938 0.365958
20638 3 0.0426091 0.527142 0.341587
20636 3 0.014462 0.19233 0.341587
20634 1 0.0569717 0.689665 0.366031
20633 3 0.0285356 0.355937 0.365958
20632 3 0.0426091 0.0271424 0.341587
20630 3 0.014462 0.692329 0.341587
20081 3 0.0285356 0.363374 0.317216
20082 3 0.0566827 0.698444 0.317216
20087 3 0.0285356 0.863374 0.317216
20088 3 0.0566827 0.198445 0.317216
20651 1 0.113122 0.86027 0.365962
20650 1 0.127149 0.532557 0.341587
20649 1 0.0850489 0.524971 0.365994
20648 1 0.0990698 0.196948 0.341605
20647 1 0.0710755 0.861751 0.341654
20645 1 0.113122 0.36027 0.365962
20644 1 0.127149 0.0325572 0.341587
20643 1 0.0850489 0.0249708 0.365994
20642 1 0.0990698 0.696948 0.341605
20641 1 0.0710755 0.361751 0.341654
20091 1 0.0850028 0.0336493 0.317276
20093 1 0.113074 0.369143 0.317236
20097 1 0.0850028 0.533649 0.317276
20099 1 0.113074 0.869143 0.317236
20661 1 0.169291 0.531668 0.365917
20660 1 0.183339 0.204723 0.341553
20659 1 0.155238 0.868484 0.341569
20655 1 0.169291 0.0316684 0.365917
20654 1 0.183339 0.704723 0.341553
20653 1 0.155238 0.368484 0.341569
20652 1 0.141198 0.195812 0.365937
20646 1 0.141198 0.695812 0.365937
20094 1 0.141181 0.704996 0.317226
20100 1 0.141181 0.204996 0.317226
20103 1 0.16929 0.0412351 0.317214
20109 1 0.16929 0.541235 0.317214
20673 1 0.253582 0.541368 0.365846
20671 1 0.239549 0.878316 0.341509
20667 1 0.253582 0.0413675 0.365846
20665 1 0.239549 0.378316 0.341509
20664 1 0.225483 0.204364 0.365871
20663 1 0.197386 0.867831 0.365895
20662 1 0.211443 0.541309 0.341532
20658 1 0.225483 0.704363 0.365871
20657 1 0.197386 0.367831 0.365895
20656 1 0.211443 0.0413085 0.341532
20105 1 0.197403 0.377822 0.317197
20106 1 0.225516 0.714786 0.317176
20111 1 0.197403 0.877822 0.317197
20112 1 0.225516 0.214786 0.317176
20115 1 0.25363 0.0522181 0.317155
20121 1 0.25363 0.552218 0.317155
20676 1 0.309793 0.217423 0.365803
20675 1 0.281684 0.878991 0.365822
20674 1 0.295771 0.55411 0.341471
20672 1 0.267657 0.215862 0.341487
20670 1 0.309793 0.717423 0.365803
20669 1 0.281684 0.378991 0.365822
20668 1 0.295771 0.05411 0.341471
20666 1 0.267657 0.715862 0.341487
20124 1 0.309874 0.229037 0.317134
20123 1 0.281748 0.890249 0.317139
20117 1 0.281748 0.390249 0.317139
20118 1 0.309874 0.729037 0.317134
20687 1 0.366051 0.897801 0.365796
20686 1 0.380192 0.57521 0.341496
20685 1 0.337913 0.556913 0.365792
20684 1 0.352035 0.233532 0.341471
20683 1 0.323896 0.893256 0.341464
20681 1 0.366051 0.397801 0.365796
20680 1 0.380192 0.07521 0.341496
20679 1 0.337913 0.0569133 0.365792
20678 1 0.352035 0.733532 0.341471
20677 1 0.323896 0.393256 0.341464
20135 1 0.366164 0.909584 0.317165
20133 1 0.338012 0.568757 0.317142
20129 1 0.366164 0.409584 0.317165
20127 1 0.338012 0.0687574 0.317142
20697 1 0.422404 0.585565 0.365868
20696 1 0.436561 0.263721 0.341596
20695 1 0.408368 0.918565 0.34154
20691 1 0.422404 0.0855647 0.365868
20690 1 0.436561 0.763721 0.341596
20689 1 0.408368 0.418566 0.34154
20688 1 0.394213 0.240525 0.365821
20682 1 0.394213 0.740525 0.365821
20145 1 0.422507 0.595103 0.317254
20139 1 0.422507 0.0951029 0.317254
20136 1 0.394329 0.251677 0.317204
20130 1 0.394329 0.751677 0.317204
20700 1 0.478856 0.282942 0.365973
20699 1 0.450622 0.933192 0.365929
20698 1 0.464766 0.610483 0.341645
20694 1 0.478856 0.782941 0.365973
20693 1 0.450622 0.433191 0.365929
20692 1 0.464766 0.110484 0.341645
20148 1 0.47888 0.285276 0.317333
20147 1 0.450692 0.939747 0.317303
20142 1 0.47888 0.785276 0.317333
20141 1 0.450692 0.439747 0.317303
20707 1 0.492975 0.958216 0.341664
20701 1 0.492975 0.458216 0.341664
21742 1 0.0428926 0.51038 0.439135
21740 3 0.014462 0.177042 0.439072
21736 1 0.0428926 0.0103798 0.439135
21734 3 0.014462 0.677042 0.439072
21192 1 0.0569817 0.181835 0.414711
21191 3 0.0285356 0.848073 0.414701
21190 3 0.0426091 0.519279 0.390329
21189 3 0.00038843 0.513918 0.414701
21188 3 0.014462 0.184856 0.390329
21186 1 0.0569817 0.681835 0.414711
21185 3 0.0285356 0.348072 0.414701
21184 3 0.0426091 0.0192791 0.390329
21183 3 0.00038843 0.0139181 0.414701
21182 3 0.014462 0.684856 0.390329
21754 1 0.127188 0.513389 0.439032
21752 1 0.0990982 0.178799 0.439049
21751 1 0.0710031 0.844469 0.439067
21748 1 0.127188 0.0133886 0.439032
21746 1 0.0990982 0.678799 0.439049
21745 1 0.0710031 0.344469 0.439067
21203 1 0.113121 0.850987 0.414681
21202 1 0.127158 0.523333 0.390311
21201 1 0.0850211 0.516222 0.414692
21200 1 0.0990659 0.188226 0.390336
21199 1 0.0709665 0.853392 0.390352
21197 1 0.113121 0.350987 0.414681
21196 1 0.127158 0.0233331 0.390311
21195 1 0.0850211 0.0162224 0.414692
21194 1 0.0990659 0.688226 0.390336
21193 1 0.0709665 0.353392 0.390352
21764 1 0.183376 0.183104 0.438992
21763 1 0.155283 0.848163 0.439013
21758 1 0.183376 0.683104 0.438992
21757 1 0.155283 0.348163 0.439013
21213 1 0.169309 0.521201 0.414639
21212 1 0.183342 0.19444 0.390265
21211 1 0.155251 0.858748 0.390288
21207 1 0.169309 0.0212014 0.414639
21206 1 0.183342 0.69444 0.390265
21205 1 0.155251 0.358748 0.390288
21204 1 0.141215 0.18599 0.41466
21198 1 0.141215 0.68599 0.41466
21775 1 0.239552 0.853717 0.438943
21769 1 0.239552 0.353717 0.438943
21766 1 0.211465 0.518263 0.438969
21760 1 0.211465 0.0182632 0.438969
21225 1 0.253574 0.528663 0.414562
21223 1 0.239525 0.866867 0.390214
21219 1 0.253574 0.0286625 0.414562
21217 1 0.239525 0.366867 0.390214
21216 1 0.225488 0.192462 0.41459
21215 1 0.197399 0.856672 0.414615
21214 1 0.211434 0.530454 0.39024
21210 1 0.225488 0.692462 0.41459
21209 1 0.197399 0.356672 0.414615
21208 1 0.211434 0.0304544 0.39024
21778 1 0.295714 0.525954 0.438886
21776 1 0.267635 0.189562 0.438916
21772 1 0.295714 0.0259543 0.438886
21770 1 0.267635 0.689562 0.438916
21228 1 0.309746 0.202909 0.414503
21227 1 0.28166 0.865407 0.414533
21226 1 0.295712 0.541418 0.39016
21224 1 0.267617 0.203796 0.390187
21222 1 0.309746 0.702909 0.414503
21221 1 0.28166 0.365407 0.414533
21220 1 0.295712 0.0414178 0.39016
21218 1 0.267617 0.703797 0.390187
21790 1 0.379945 0.541489 0.438782
21788 1 0.351865 0.201456 0.438819
21787 1 0.32379 0.863137 0.438854
21784 1 0.379945 0.0414893 0.438782
21782 1 0.351865 0.701457 0.438819
21781 1 0.32379 0.363137 0.438854
21239 1 0.365935 0.881486 0.414448
21238 1 0.38006 0.561325 0.390117
21237 1 0.337835 0.541456 0.414474
21236 1 0.351926 0.21977 0.39012
21235 1 0.323813 0.879964 0.390136
21233 1 0.365935 0.381486 0.414448
21232 1 0.38006 0.0613256 0.390117
21231 1 0.337835 0.0414554 0.414474
21230 1 0.351926 0.719771 0.39012
21229 1 0.323813 0.379964 0.390136
21800 1 0.436193 0.232033 0.438703
21799 1 0.408044 0.884232 0.438744
21794 1 0.436193 0.732034 0.438703
21793 1 0.408044 0.384233 0.438744
21249 1 0.422225 0.569374 0.414434
21248 1 0.43644 0.252794 0.390184
21247 1 0.408227 0.905344 0.390136
21243 1 0.422225 0.0693727 0.414434
21242 1 0.43644 0.752795 0.390184
21241 1 0.408227 0.405344 0.390136
21240 1 0.394058 0.223708 0.414432
21234 1 0.394058 0.723708 0.414432
21802 1 0.464506 0.58972 0.438746
21796 1 0.464506 0.0897219 0.438746
21252 1 0.478803 0.278094 0.414552
21251 1 0.450471 0.92056 0.41448
21250 1 0.464698 0.604177 0.390251
21246 1 0.478803 0.778092 0.414552
21245 1 0.450471 0.420559 0.41448
21244 1 0.464698 0.104178 0.390251
21811 1 0.492979 0.958256 0.438836
21805 1 0.492979 0.458258 0.438836
21259 1 0.492976 0.958238 0.390281
21253 1 0.492976 0.458239 0.390281
21744 1 0.0570495 0.17292 0.463461
21743 3 0.0285356 0.839907 0.463443
21741 3 0.00038843 0.506201 0.463443
21738 1 0.0570495 0.67292 0.463461
21737 3 0.0285356 0.339906 0.463443
21735 3 0.00038843 0.00620103 0.463443
22286 3 0.014462 0.669022 0.487814
22288 1 0.042878 0.00164226 0.487813
22292 3 0.014462 0.169023 0.487814
22294 1 0.042878 0.501642 0.487813
21755 1 0.11317 0.84101 0.463405
21753 1 0.085086 0.506798 0.463428
21749 1 0.11317 0.34101 0.463405
21747 1 0.085086 0.00679793 0.463428
22297 1 0.071037 0.335298 0.487806
22298 1 0.0991452 0.669039 0.487781
22300 1 0.127241 0.00292486 0.487761
22303 1 0.071037 0.835298 0.487806
22304 1 0.0991452 0.169039 0.487781
22306 1 0.127241 0.502925 0.487761
21765 1 0.169358 0.509818 0.463368
21759 1 0.169358 0.00981841 0.463368
21756 1 0.141264 0.175375 0.463387
21750 1 0.141264 0.675375 0.463387
22309 1 0.155342 0.336897 0.487743
22310 1 0.183442 0.670897 0.487725
22315 1 0.155342 0.836897 0.487743
22316 1 0.183442 0.170897 0.487725
21777 1 0.253631 0.514048 0.463302
21771 1 0.253631 0.0140484 0.463302
21768 1 0.225544 0.179096 0.463326
21767 1 0.197452 0.844378 0.463348
21762 1 0.225544 0.679096 0.463326
21761 1 0.197452 0.344378 0.463348
22312 1 0.21154 0.00494037 0.487705
22318 1 0.21154 0.50494 0.487705
22321 1 0.239636 0.339053 0.487686
22327 1 0.239636 0.839053 0.487686
21780 1 0.309788 0.185103 0.463248
21779 1 0.281713 0.84933 0.463276
21774 1 0.309788 0.685103 0.463249
21773 1 0.281713 0.34933 0.463276
22322 1 0.267728 0.673283 0.487665
22324 1 0.295814 0.00769838 0.487644
22328 1 0.267728 0.173283 0.487665
22330 1 0.295814 0.507698 0.487644
21791 1 0.365914 0.85927 0.463179
21789 1 0.337856 0.521616 0.463216
21785 1 0.365914 0.35927 0.463179
21783 1 0.337856 0.0216151 0.463216
22333 1 0.323891 0.342422 0.487622
22334 1 0.351956 0.677638 0.487597
22336 1 0.379999 0.013648 0.487569
22339 1 0.323891 0.842421 0.487622
22340 1 0.351956 0.177638 0.487597
22342 1 0.379999 0.513647 0.487569
21801 1 0.422008 0.541533 0.463064
21795 1 0.422008 0.0415327 0.463064
21792 1 0.393963 0.198792 0.463133
21786 1 0.393963 0.69879 0.463133
22345 1 0.408003 0.351032 0.487529
22346 1 0.435966 0.691059 0.487467
22351 1 0.408003 0.851032 0.487529
22352 1 0.435966 0.191057 0.487467
21804 1 0.478608 0.262645 0.463026
21803 1 0.450122 0.892054 0.462948
21798 1 0.478608 0.762643 0.463026
21797 1 0.450122 0.392053 0.462948
22348 1 0.464016 0.0415775 0.487314
22354 1 0.464016 0.541577 0.487314
22357 1 0.492982 0.458264 0.487369
22363 1 0.492982 0.958264 0.487369
22287 3 0.00038843 0.998366 0.512186
22289 3 0.0285356 0.3316 0.512186
22290 1 0.0570536 0.663943 0.512169
22293 3 0.00038843 0.498365 0.512186
22295 3 0.0285356 0.8316 0.512186
22296 1 0.0570536 0.163943 0.512169
22838 3 0.014462 0.660955 0.536557
22839 3 0.00038843 0.990562 0.560928
22840 1 0.0428867 0.993028 0.536537
22841 3 0.0285356 0.323331 0.560928
22842 1 0.0570777 0.655263 0.560867
22844 3 0.014462 0.160955 0.536557
22845 3 0.00038843 0.490561 0.560928
22846 1 0.0428867 0.493028 0.536537
22847 3 0.0285356 0.823331 0.560928
22848 1 0.0570777 0.155263 0.560867
22299 1 0.0851161 0.997329 0.512151
22301 1 0.113216 0.330861 0.512133
22305 1 0.0851161 0.497329 0.512151
22307 1 0.113216 0.830861 0.512133
22849 1 0.0710584 0.326169 0.536513
22850 1 0.0991807 0.659281 0.536501
22851 1 0.0851417 0.988036 0.560864
22852 1 0.127289 0.992396 0.536486
22853 1 0.113248 0.320853 0.560855
22855 1 0.0710584 0.826169 0.536513
22856 1 0.0991807 0.159281 0.536501
22857 1 0.0851417 0.488036 0.560864
22858 1 0.127289 0.492396 0.536486
22859 1 0.113248 0.820853 0.560855
22302 1 0.141321 0.664407 0.512116
22308 1 0.141321 0.164407 0.512116
22311 1 0.169427 0.997909 0.512099
22317 1 0.169427 0.497909 0.512099
22854 1 0.141366 0.653581 0.560838
22860 1 0.141366 0.153581 0.560838
22861 1 0.155403 0.325464 0.53647
22862 1 0.183518 0.658395 0.536453
22863 1 0.16949 0.986096 0.560821
22867 1 0.155403 0.825464 0.53647
22868 1 0.183518 0.158395 0.536453
22869 1 0.16949 0.486096 0.560821
22313 1 0.197534 0.331352 0.512082
22314 1 0.22564 0.664728 0.512064
22319 1 0.197534 0.831352 0.512082
22320 1 0.22564 0.164728 0.512064
22323 1 0.253743 0.99803 0.512048
22329 1 0.253743 0.49803 0.512048
22864 1 0.211634 0.991151 0.536438
22865 1 0.197615 0.318356 0.560806
22866 1 0.22574 0.650308 0.560794
22870 1 0.211634 0.491151 0.536438
22871 1 0.197615 0.818356 0.560806
22872 1 0.22574 0.150308 0.560794
22873 1 0.239749 0.323695 0.536425
22875 1 0.253864 0.981871 0.560787
22879 1 0.239749 0.823695 0.536425
22881 1 0.253864 0.481871 0.560787
22325 1 0.281844 0.331254 0.512033
22326 1 0.309939 0.664396 0.51202
22331 1 0.281844 0.831254 0.512033
22332 1 0.309939 0.164396 0.51202
22874 1 0.267863 0.655967 0.536414
22876 1 0.295975 0.987883 0.536407
22877 1 0.281986 0.312926 0.560783
22878 1 0.310108 0.643279 0.560787
22880 1 0.267863 0.155968 0.536414
22882 1 0.295975 0.487883 0.536407
22883 1 0.281986 0.812926 0.560783
22884 1 0.310108 0.143279 0.560787
22335 1 0.338028 0.997428 0.512009
22337 1 0.366105 0.330232 0.512003
22341 1 0.338028 0.497428 0.512009
22343 1 0.366105 0.830233 0.512003
22885 1 0.324084 0.319286 0.536405
22886 1 0.352189 0.64985 0.536413
22887 1 0.338227 0.972567 0.560802
22888 1 0.380291 0.978905 0.536439
22889 1 0.366344 0.300153 0.560838
22891 1 0.324084 0.819287 0.536405
22892 1 0.352189 0.149849 0.536413
22893 1 0.338227 0.472567 0.560802
22894 1 0.380291 0.478905 0.536439
22895 1 0.366344 0.800153 0.560838
22338 1 0.394163 0.662511 0.512005
22344 1 0.394163 0.162511 0.512005
22347 1 0.422197 0.993396 0.512024
22353 1 0.422197 0.493398 0.512024
22890 1 0.394456 0.624903 0.560911
22896 1 0.394456 0.124904 0.560911
22897 1 0.408391 0.305038 0.536501
22898 1 0.436511 0.624927 0.536634
22899 1 0.422566 0.944792 0.561049
22903 1 0.408391 0.805037 0.536501
22904 1 0.436511 0.124928 0.536634
22905 1 0.422566 0.444792 0.561049
22349 1 0.450277 0.320524 0.512095
22350 1 0.478547 0.624954 0.51237
22355 1 0.450277 0.820524 0.512095
22356 1 0.478547 0.124954 0.51237
22900 1 0.46465 0.929359 0.536984
22901 1 0.450671 0.256457 0.561333
22902 1 0.478828 0.558821 0.56169
22906 1 0.46465 0.429357 0.536984
22907 1 0.450671 0.756456 0.561333
22908 1 0.478828 0.0588229 0.56169
22909 1 0.492985 0.20833 0.537479
22915 1 0.492985 0.708333 0.537479
23390 3 0.014462 0.653003 0.585299
23391 3 0.00038843 0.982936 0.609671
23392 1 0.0429145 0.984812 0.585201
23393 3 0.0285356 0.315272 0.609671
23394 1 0.0570378 0.647151 0.609576
23396 3 0.014462 0.153003 0.585299
23397 3 0.00038843 0.482935 0.609671
23398 1 0.0429145 0.484812 0.585201
23399 3 0.0285356 0.815273 0.609671
23400 1 0.0570378 0.147151 0.609576
23401 1 0.0710638 0.317399 0.585228
23402 1 0.0991872 0.649873 0.585222
23403 1 0.0850913 0.97933 0.609596
23404 1 0.127309 0.98226 0.585204
23405 1 0.113236 0.311522 0.609565
23407 1 0.0710638 0.817399 0.585228
23408 1 0.0991872 0.149873 0.585222
23409 1 0.0850913 0.47933 0.609596
23410 1 0.127309 0.48226 0.585204
23411 1 0.113236 0.811522 0.609565
23406 1 0.141384 0.643435 0.609542
23412 1 0.141384 0.143435 0.609542
23413 1 0.155445 0.314448 0.585185
23414 1 0.183581 0.646314 0.585169
23415 1 0.169534 0.974987 0.609525
23419 1 0.155445 0.814448 0.585185
23420 1 0.183581 0.146314 0.585169
23421 1 0.169534 0.474987 0.609525
23416 1 0.211715 0.977818 0.585159
23417 1 0.197677 0.306141 0.609518
23418 1 0.225813 0.63685 0.609516
23422 1 0.211715 0.477818 0.585159
23423 1 0.197677 0.806141 0.609518
23424 1 0.225813 0.13685 0.609516
23425 1 0.239846 0.308882 0.585154
23427 1 0.253946 0.967002 0.609519
23431 1 0.239846 0.808882 0.585154
23433 1 0.253946 0.467002 0.609519
23426 1 0.267976 0.639377 0.585153
23428 1 0.296103 0.969119 0.58516
23429 1 0.282075 0.296431 0.609528
23430 1 0.310201 0.624878 0.609549
23432 1 0.267976 0.139377 0.585153
23434 1 0.296103 0.469119 0.58516
23435 1 0.282075 0.796431 0.609528
23436 1 0.310201 0.124879 0.609549
23437 1 0.324228 0.297789 0.585179
23438 1 0.352348 0.624886 0.585218
23439 1 0.338322 0.951972 0.609587
23440 1 0.380463 0.949636 0.585289
23441 1 0.366436 0.277205 0.609653
23443 1 0.324228 0.797789 0.585179
23444 1 0.352348 0.124886 0.585218
23445 1 0.338322 0.451972 0.609587
23446 1 0.380463 0.449636 0.585289
23447 1 0.366436 0.777205 0.609653
23442 1 0.394543 0.599941 0.609757
23448 1 0.394543 0.0999406 0.609757
23449 1 0.408571 0.270903 0.585411
23450 1 0.436671 0.587319 0.585616
23451 1 0.422644 0.919578 0.609911
23455 1 0.408571 0.770904 0.585411
23456 1 0.436671 0.0873176 0.585616
23457 1 0.422644 0.419577 0.609911
23452 1 0.464792 0.898821 0.58587
23453 1 0.450756 0.236186 0.610097
23454 1 0.478904 0.551072 0.610224
23458 1 0.464792 0.398823 0.58587
23459 1 0.450756 0.736187 0.610097
23460 1 0.478904 0.0510705 0.610224
23461 1 0.492987 0.208354 0.585975
23467 1 0.492987 0.70835 0.585975
23942 3 0.014462 0.645316 0.634042
23944 3 0.0426091 0.977389 0.634042
23945 3 0.0285356 0.307573 0.658413
23946 3 0.0566827 0.639375 0.658413
23948 3 0.014462 0.145317 0.634042
23950 3 0.0426091 0.477389 0.634042
23951 3 0.0285356 0.807573 0.658413
23952 3 0.0566827 0.139375 0.658413
24496 3 0.0426091 0.969729 0.682784
24502 3 0.0426091 0.469729 0.682784
23953 1 0.0709765 0.309432 0.633945
23954 1 0.0991319 0.641392 0.633923
23955 1 0.0850806 0.971605 0.658243
23956 1 0.127314 0.973014 0.633888
23957 1 0.11325 0.303069 0.658224
23959 1 0.0709765 0.809432 0.633945
23960 1 0.0991319 0.141392 0.633923
23961 1 0.0850806 0.471605 0.658243
23962 1 0.127314 0.473014 0.633888
23963 1 0.11325 0.803069 0.658224
24505 1 0.0708865 0.302613 0.682664
24506 1 0.0992502 0.633419 0.682537
24508 1 0.127425 0.964243 0.68252
24511 1 0.0708865 0.802613 0.682664
24512 1 0.0992502 0.133419 0.682537
24514 1 0.127425 0.464243 0.68252
23958 1 0.141434 0.634108 0.658205
23964 1 0.141434 0.134108 0.658205
23965 1 0.15548 0.304298 0.633873
23966 1 0.183631 0.635169 0.63387
23967 1 0.169588 0.964747 0.658215
23971 1 0.15548 0.804298 0.633873
23972 1 0.183631 0.135169 0.63387
23973 1 0.169588 0.464747 0.658215
24517 1 0.155566 0.294707 0.682552
24518 1 0.183684 0.624858 0.682586
24523 1 0.155566 0.794707 0.682552
24524 1 0.183684 0.124858 0.682586
23968 1 0.211771 0.965617 0.633874
23969 1 0.197725 0.295014 0.658229
23970 1 0.225854 0.624868 0.658242
23974 1 0.211771 0.465617 0.633874
23975 1 0.197725 0.795014 0.658229
23976 1 0.225854 0.124868 0.658242
23977 1 0.239903 0.295569 0.633881
23979 1 0.253979 0.954174 0.658256
23983 1 0.239903 0.795569 0.633881
23985 1 0.253979 0.454174 0.658256
24520 1 0.211802 0.954714 0.682605
24526 1 0.211802 0.454714 0.682605
24529 1 0.23992 0.284118 0.68262
24535 1 0.23992 0.784118 0.68262
23978 1 0.268032 0.624874 0.633893
23980 1 0.296157 0.953324 0.633914
23981 1 0.282102 0.282747 0.658277
23982 1 0.310221 0.610379 0.65831
23984 1 0.268032 0.124874 0.633893
23986 1 0.296157 0.453324 0.633914
23987 1 0.282102 0.782747 0.658277
23988 1 0.310221 0.110379 0.65831
24530 1 0.268039 0.612892 0.682639
24532 1 0.296157 0.940869 0.682667
24536 1 0.268039 0.112892 0.682639
24538 1 0.296157 0.440869 0.682667
23989 1 0.324277 0.280638 0.63395
23990 1 0.352391 0.606484 0.634009
23991 1 0.338334 0.936836 0.658361
23992 1 0.380498 0.930489 0.634098
23993 1 0.366442 0.261886 0.658437
23995 1 0.324277 0.780639 0.63395
23996 1 0.352391 0.106484 0.634009