ITEM: TIMESTEP
38
ITEM: NUMBER OF ATOMS
2350
ITEM: BOX BOUNDS ss pp ss
-4.0972079223999998e+01 4.1846228795000002e+01
-4.1208122699999999e-01 4.5329187729999996e+00
-4.0071644046000003e+01 4.0744551645000001e+01
ITEM: ATOMS id type xs ys zs
17355 3 0.253713 0.0847162 0.0503597
17361 3 0.253713 0.584716 0.0503597
17356 3 0.295933 0.0924822 0.0253797
17357 3 0.28186 0.422098 0.0503597
17358 3 0.310007 0.759693 0.0503597
17362 3 0.295933 0.592482 0.0253797
17363 3 0.28186 0.922098 0.0503597
17364 3 0.310007 0.259693 0.0503597
16817 3 0.366301 0.437672 0.00039968
16823 3 0.366301 0.937673 0.00039968
17365 3 0.32408 0.430014 0.0253797
17366 3 0.352228 0.767717 0.0253797
17367 1 0.338237 0.0969683 0.0503916
17368 3 0.380375 0.105575 0.0253797
17369 1 0.36643 0.436414 0.0506918
17371 3 0.32408 0.930014 0.0253797
17372 3 0.352228 0.267718 0.0253797
17373 1 0.338237 0.596968 0.0503916
17374 3 0.380375 0.605574 0.0253797
17375 1 0.36643 0.936414 0.0506918
16818 3 0.394448 0.775393 0.00039968
16824 3 0.394448 0.275393 0.00039968
16827 3 0.422595 0.113215 0.00039968
16833 3 0.422595 0.613215 0.00039968
17370 1 0.394577 0.77407 0.0507162
17376 1 0.394577 0.27407 0.0507162
17377 3 0.408522 0.443563 0.0253797
17378 1 0.436678 0.781683 0.0254248
17379 1 0.422644 0.111967 0.0505962
17383 3 0.408522 0.943564 0.0253797
17384 1 0.436678 0.281683 0.0254248
17385 1 0.422644 0.611967 0.0505962
16829 3 0.450743 0.451114 0.00039968
16830 3 0.47889 0.789062 0.00039968
16835 3 0.450743 0.951115 0.00039968
16836 3 0.47889 0.289062 0.00039968
17380 1 0.464822 0.119848 0.0254292
17381 1 0.450768 0.450359 0.0505961
17382 1 0.478898 0.788813 0.0505966
17386 1 0.464822 0.619848 0.0254292
17387 1 0.450768 0.950359 0.0505961
17388 1 0.478898 0.288813 0.0505966
17389 1 0.492964 0.458046 0.0254295
17395 1 0.492964 0.958046 0.0254295
17895 3 0.169271 0.0692523 0.10032
17901 3 0.169271 0.569252 0.10032
18445 3 0.155198 0.398336 0.1253
18446 3 0.183345 0.735092 0.1253
18451 3 0.155198 0.898336 0.1253
18452 3 0.183345 0.235093 0.1253
17896 3 0.211492 0.0769238 0.0753397
17897 3 0.197418 0.406101 0.10032
17898 3 0.225565 0.743207 0.10032
17902 3 0.211492 0.576923 0.0753397
17903 3 0.197418 0.906101 0.10032
17904 3 0.225565 0.243208 0.10032
17905 3 0.239639 0.414073 0.0753397
17907 1 0.253847 0.0814079 0.100559
17911 3 0.239639 0.914074 0.0753397
17913 1 0.253847 0.581408 0.100559
18448 1 0.211701 0.0726599 0.125518
18454 1 0.211701 0.57266 0.125518
18457 1 0.239848 0.410109 0.125614
18463 1 0.239848 0.910109 0.125614
17906 3 0.267786 0.751465 0.0753397
17908 1 0.296026 0.0897807 0.0756388
17909 1 0.28203 0.418982 0.100668
17910 1 0.310145 0.756798 0.100568
17912 3 0.267786 0.251466 0.0753397
17914 1 0.296026 0.589781 0.0756388
17915 1 0.28203 0.918982 0.100668
17916 1 0.310145 0.256798 0.100568
18458 1 0.267929 0.747689 0.125551
18460 1 0.296068 0.0857061 0.125549
18464 1 0.267929 0.247689 0.125551
18466 1 0.296068 0.585706 0.125549
17917 1 0.324244 0.427421 0.0756331
17918 1 0.352351 0.76549 0.0755999
17919 1 0.338274 0.0948949 0.100547
17920 1 0.380491 0.104031 0.0756339
17921 1 0.366401 0.433264 0.100568
17923 1 0.324244 0.927421 0.075633
17924 1 0.352351 0.26549 0.0755999
17925 1 0.338274 0.594895 0.100547
17926 1 0.380491 0.604031 0.0756339
17927 1 0.366401 0.933264 0.100568
18469 1 0.324196 0.423783 0.125523
18470 1 0.352322 0.762237 0.125519
18472 1 0.380457 0.101037 0.125527
18475 1 0.324196 0.923783 0.125523
18476 1 0.352322 0.262237 0.125519
18478 1 0.380457 0.601037 0.125527
17922 1 0.394543 0.771954 0.100578
17928 1 0.394543 0.271954 0.100578
17929 1 0.408616 0.442334 0.0755902
17930 1 0.436722 0.780651 0.0755456
17931 1 0.422669 0.110678 0.100553
17935 1 0.408616 0.942334 0.0755902
17936 1 0.436722 0.280651 0.0755456
17937 1 0.422669 0.610678 0.100553
18481 1 0.408593 0.440094 0.125529
18482 1 0.436722 0.779278 0.12552
18487 1 0.408593 0.940094 0.125529
18488 1 0.436722 0.279278 0.12552
17932 1 0.464841 0.119305 0.0755378
17933 1 0.450785 0.449502 0.100532
17934 1 0.478905 0.788517 0.100528
17938 1 0.464841 0.619305 0.0755378
17939 1 0.450785 0.949502 0.100532
17940 1 0.478905 0.288517 0.100528
18484 1 0.464844 0.118616 0.125514
18490 1 0.464844 0.618616 0.125514
17941 1 0.492965 0.458049 0.0755366
17947 1 0.492965 0.958049 0.0755366
18493 1 0.492966 0.45806 0.125513
18499 1 0.492966 0.95806 0.125513
18986 3 0.0989034 0.71989 0.17526
18988 3 0.127051 0.0561009 0.17526
18992 3 0.0989034 0.21989 0.17526
18994 3 0.127051 0.5561 0.17526
18438 3 0.141124 0.727279 0.15028
18444 3 0.141124 0.227279 0.15028
18447 3 0.169271 0.0639117 0.15028
18453 3 0.169271 0.563911 0.15028
18997 1 0.155163 0.392214 0.175379
18998 1 0.183396 0.729471 0.175413
19003 1 0.155163 0.892214 0.175379
19004 1 0.183396 0.229471 0.175413
18449 1 0.19762 0.401131 0.150551
18450 1 0.225703 0.738518 0.150503
18455 1 0.19762 0.901131 0.150551
18456 1 0.225703 0.238518 0.150503
18459 1 0.253841 0.0762262 0.15051
18465 1 0.253841 0.576226 0.15051
19000 1 0.211554 0.0668502 0.175433
19006 1 0.211554 0.56685 0.175433
19009 1 0.239717 0.404305 0.175437
19015 1 0.239717 0.904305 0.175437
18461 1 0.281971 0.414039 0.150493
18462 1 0.310107 0.752265 0.150481
18467 1 0.281971 0.914039 0.150493
18468 1 0.310107 0.252265 0.150481
19010 1 0.267863 0.742129 0.175433
19012 1 0.296004 0.0802514 0.175425
19016 1 0.267863 0.242129 0.175433
19018 1 0.296004 0.580251 0.175425
18471 1 0.338238 0.0907568 0.150474
18473 1 0.366373 0.429648 0.150481
18477 1 0.338238 0.590757 0.150474
18479 1 0.366373 0.929648 0.150481
19021 1 0.324145 0.418796 0.175425
19022 1 0.352284 0.757773 0.175431
19024 1 0.380424 0.0972108 0.175444
19027 1 0.324145 0.918796 0.175425
19028 1 0.352284 0.257773 0.175431
19030 1 0.380424 0.597211 0.175444
18474 1 0.394511 0.768928 0.150492
18480 1 0.394511 0.268928 0.150492
18483 1 0.422647 0.108482 0.150497
18489 1 0.422647 0.608482 0.150497
19033 1 0.408564 0.437062 0.175458
19034 1 0.436702 0.777224 0.175469
19039 1 0.408564 0.937062 0.175458
19040 1 0.436702 0.277224 0.175469
18485 1 0.450777 0.448225 0.150498
18486 1 0.478904 0.788106 0.150499
18491 1 0.450777 0.948225 0.150498
18492 1 0.478904 0.288106 0.150499
19036 1 0.464836 0.117596 0.175476
19042 1 0.464836 0.617596 0.175476
19045 1 0.492968 0.458085 0.175479
19051 1 0.492968 0.958085 0.175479
18987 3 0.0848298 0.0487991 0.20024
18989 3 0.112977 0.384826 0.20024
18993 3 0.0848298 0.548799 0.20024
18995 3 0.112977 0.884827 0.20024
19537 3 0.0707563 0.377663 0.22522
19538 3 0.0989034 0.713486 0.22522
19540 1 0.127264 0.049841 0.225482
19543 3 0.0707563 0.877664 0.22522
19544 3 0.0989034 0.213486 0.22522
19546 1 0.127264 0.549841 0.225482
18990 1 0.141311 0.721865 0.200501
18996 1 0.141311 0.221865 0.200501
18999 1 0.169386 0.0580128 0.200427
19005 1 0.169386 0.558013 0.200427
19549 1 0.155342 0.386387 0.225407
19550 1 0.183436 0.722874 0.225339
19555 1 0.155342 0.886387 0.225407
19556 1 0.183436 0.222874 0.225339
19001 1 0.197468 0.394763 0.200353
19002 1 0.225612 0.732145 0.20036
19007 1 0.197468 0.894763 0.200353
19008 1 0.225612 0.232145 0.20036
19011 1 0.253753 0.0697888 0.200361
19017 1 0.253753 0.569789 0.200361
19552 1 0.211537 0.0597664 0.225301
19558 1 0.211537 0.559766 0.225301
19561 1 0.239662 0.397179 0.225296
19567 1 0.239662 0.897179 0.225296
19013 1 0.281899 0.40784 0.200363
19014 1 0.310042 0.746344 0.200365
19019 1 0.281899 0.90784 0.200363
19020 1 0.310042 0.246344 0.200365
19562 1 0.267797 0.735055 0.225297
19564 1 0.295937 0.0734369 0.225299
19568 1 0.267797 0.235055 0.225297
19570 1 0.295937 0.573437 0.225299
19023 1 0.338185 0.0853526 0.200372
19025 1 0.366329 0.424896 0.200387
19029 1 0.338185 0.585353 0.200372
19031 1 0.366329 0.924896 0.200387
19573 1 0.32408 0.41238 0.225307
19574 1 0.352226 0.751942 0.225322
19576 1 0.380375 0.092159 0.225344
19579 1 0.32408 0.91238 0.225307
19580 1 0.352226 0.251942 0.225322
19582 1 0.380375 0.592159 0.225344
19026 1 0.394474 0.764972 0.200407
19032 1 0.394474 0.264972 0.200407
19035 1 0.422618 0.105515 0.200427
19041 1 0.422618 0.605515 0.200427
19585 1 0.408525 0.433005 0.225371
19586 1 0.436675 0.774384 0.225397
19591 1 0.408525 0.933005 0.225371
19592 1 0.436675 0.274384 0.225397
19037 1 0.45076 0.446402 0.200443
19038 1 0.4789 0.787506 0.200452
19043 1 0.45076 0.946402 0.200443
19044 1 0.4789 0.287506 0.200452
19588 1 0.464823 0.116145 0.225415
19594 1 0.464823 0.616145 0.225415
19597 1 0.49297 0.458111 0.225422
19603 1 0.49297 0.958112 0.225422
19530 3 0.0566827 0.706511 0.2502
19536 3 0.0566827 0.206512 0.2502
20080 3 0.0426091 0.0353707 0.27518
20081 3 0.0285356 0.364269 0.30016
20082 3 0.0566827 0.699379 0.30016
20086 3 0.0426091 0.53537 0.27518
20087 3 0.0285356 0.864269 0.30016
20088 3 0.0566827 0.19938 0.30016
19539 3 0.0848298 0.0421095 0.2502
19541 1 0.113128 0.377976 0.250319
19545 3 0.0848298 0.542109 0.2502
19547 1 0.113128 0.877976 0.250319
20089 3 0.0707563 0.370729 0.27518
20090 1 0.0990805 0.706254 0.275252
20091 1 0.0851598 0.0343849 0.300216
20092 1 0.127165 0.0421186 0.275245
20093 1 0.113155 0.369861 0.300192
20095 3 0.0707563 0.870729 0.27518
20096 1 0.0990805 0.206254 0.275252
20097 1 0.0851598 0.534385 0.300216
20098 1 0.127165 0.542119 0.275245
20099 1 0.113155 0.869861 0.300192
19542 1 0.141242 0.714376 0.250338
19548 1 0.141242 0.214376 0.250338
19551 1 0.16937 0.0507792 0.250315
19557 1 0.16937 0.550779 0.250315
20094 1 0.141239 0.705833 0.300199
20100 1 0.141239 0.205833 0.300199
20101 1 0.155291 0.378403 0.275257
20102 1 0.183402 0.714859 0.275235
20103 1 0.169335 0.0421122 0.300193
20107 1 0.155291 0.878403 0.275257
20108 1 0.183402 0.214859 0.275235
20109 1 0.169335 0.542112 0.300193
19553 1 0.197474 0.387405 0.25027
19554 1 0.225583 0.724438 0.250247
19559 1 0.197474 0.887405 0.25027
19560 1 0.225583 0.224438 0.250247
19563 1 0.253704 0.0620166 0.250237
19569 1 0.253704 0.562017 0.250237
20104 1 0.21151 0.0516015 0.27521
20105 1 0.197438 0.378623 0.300175
20106 1 0.225541 0.715491 0.300152
20110 1 0.21151 0.551602 0.27521
20111 1 0.197438 0.878623 0.300175
20112 1 0.225541 0.215491 0.300152
20113 1 0.23962 0.388813 0.27519
20115 1 0.253649 0.0528564 0.300132
20119 1 0.23962 0.888813 0.27519
20121 1 0.253649 0.552856 0.300132
19565 1 0.281835 0.400151 0.250235
19566 1 0.309972 0.738907 0.250238
19571 1 0.281835 0.900151 0.250235
19572 1 0.309972 0.238907 0.250238
20114 1 0.267738 0.726593 0.275178
20116 1 0.295865 0.0650245 0.275173
20117 1 0.281765 0.390847 0.300118
20118 1 0.30989 0.729601 0.300111
20120 1 0.267738 0.226593 0.275178
20122 1 0.295865 0.565024 0.275173
20123 1 0.281765 0.890847 0.300118
20124 1 0.30989 0.229601 0.300111
19575 1 0.338116 0.0783584 0.25025
19577 1 0.366266 0.418579 0.250272
19581 1 0.338116 0.578358 0.25025
19583 1 0.366266 0.918579 0.250272
20135 1 0.366177 0.910026 0.300135
20134 1 0.380304 0.58527 0.275222
20133 1 0.338027 0.569271 0.300116
20132 1 0.352148 0.244255 0.275193
20131 1 0.324002 0.904207 0.275178
20125 1 0.324002 0.404207 0.275178
20126 1 0.352148 0.744255 0.275193
20127 1 0.338027 0.0692714 0.300116
20128 1 0.380304 0.0852701 0.275222
20129 1 0.366177 0.410026 0.300135
20145 1 0.422514 0.595355 0.300214
20144 1 0.436633 0.270286 0.275299
20143 1 0.408466 0.927303 0.275259
19578 1 0.39442 0.759606 0.250302
20139 1 0.422514 0.0953548 0.300214
20138 1 0.436633 0.770286 0.275299
20137 1 0.408466 0.427303 0.275259
19584 1 0.39442 0.259606 0.250302
20136 1 0.39434 0.252027 0.300169
19587 1 0.422578 0.101395 0.250336
19593 1 0.422578 0.601395 0.250336
20130 1 0.39434 0.752027 0.300169
20148 1 0.478879 0.285284 0.300287
20147 1 0.450695 0.939884 0.300259
20146 1 0.464802 0.614 0.27533
20142 1 0.478879 0.785284 0.300287
20141 1 0.450695 0.439884 0.300259
20140 1 0.464802 0.114 0.27533
19589 1 0.450735 0.443809 0.250365
19590 1 0.478892 0.786636 0.250383
19595 1 0.450735 0.943809 0.250365
19596 1 0.478892 0.286636 0.250383
20149 1 0.492971 0.458133 0.275342
20155 1 0.492971 0.958133 0.275342
21190 3 0.0426091 0.520286 0.3751
21188 3 0.014462 0.185811 0.3751
21184 3 0.0426091 0.0202868 0.3751
21182 3 0.014462 0.685811 0.3751
20640 1 0.056767 0.191987 0.350028
20639 3 0.0285356 0.856893 0.35012
20638 3 0.0426091 0.52809 0.32514
20634 1 0.056767 0.691987 0.350028
20633 3 0.0285356 0.356892 0.35012
20632 3 0.0426091 0.028091 0.32514
21202 1 0.127146 0.524433 0.375094
21200 1 0.0990264 0.189442 0.375084
21199 1 0.0709123 0.854731 0.375066
21196 1 0.127146 0.024433 0.375094
21194 1 0.0990264 0.689442 0.375084
21193 1 0.0709123 0.354731 0.375066
20651 1 0.113126 0.861346 0.350137
20650 1 0.1272 0.533452 0.325165
20649 1 0.0850471 0.526202 0.350126
20648 1 0.0991358 0.197842 0.325171
20647 1 0.0710717 0.86235 0.325174
20645 1 0.113126 0.361346 0.350137
20644 1 0.1272 0.033452 0.325165
20643 1 0.0850471 0.0262023 0.350126
20642 1 0.0991358 0.697842 0.325171
20641 1 0.0710717 0.36235 0.325174
21212 1 0.183349 0.195341 0.375071
21211 1 0.155251 0.859744 0.375087
21206 1 0.183349 0.695341 0.375071
21205 1 0.155251 0.359744 0.375087
20661 1 0.16931 0.532589 0.350115
20660 1 0.183371 0.205575 0.325143
20659 1 0.155277 0.869362 0.325157
20655 1 0.16931 0.0325892 0.350115
20654 1 0.183371 0.705575 0.325143
20653 1 0.155277 0.369362 0.325157
20652 1 0.141215 0.196807 0.350128
20646 1 0.141215 0.696807 0.350128
21223 1 0.239535 0.867594 0.375023
21217 1 0.239535 0.367594 0.375023
21214 1 0.211443 0.531268 0.375049
21208 1 0.211443 0.0312683 0.375049
20673 1 0.253596 0.542045 0.350044
20671 1 0.239569 0.879012 0.325097
20667 1 0.253596 0.0420446 0.350044
20665 1 0.239569 0.379012 0.325097
20664 1 0.225499 0.20512 0.35007
20663 1 0.197404 0.868672 0.350095
20662 1 0.211469 0.542085 0.325121
20658 1 0.225499 0.705121 0.35007
20657 1 0.197404 0.368672 0.350095
20656 1 0.211469 0.0420847 0.325121
21226 1 0.29572 0.541993 0.374966
21224 1 0.267626 0.204444 0.374995
21220 1 0.29572 0.0419932 0.374966
21218 1 0.267626 0.704444 0.374995
20676 1 0.309804 0.217963 0.349998
20675 1 0.281696 0.879594 0.350019
20674 1 0.295786 0.554684 0.325058
20672 1 0.267674 0.216493 0.325075
20670 1 0.309804 0.717963 0.349998
20669 1 0.281696 0.379594 0.350019
20668 1 0.295786 0.0546835 0.325058
20666 1 0.267674 0.716493 0.325075
21238 1 0.380065 0.561718 0.374913
21236 1 0.351932 0.220226 0.37492
21235 1 0.32382 0.880479 0.37494
21232 1 0.380065 0.061718 0.374913
21230 1 0.351932 0.720226 0.37492
21229 1 0.32382 0.380479 0.37494
20687 1 0.366059 0.898225 0.349985
20686 1 0.380201 0.575603 0.325074
20685 1 0.337923 0.557398 0.349985
20684 1 0.352046 0.233994 0.325053
20683 1 0.323909 0.893778 0.325049
20681 1 0.366059 0.398225 0.349985
20680 1 0.380201 0.0756029 0.325074
20679 1 0.337923 0.0573982 0.349985
20678 1 0.352046 0.733994 0.325053
20677 1 0.323909 0.393778 0.325049
21248 1 0.436441 0.253016 0.374975
21247 1 0.40823 0.905665 0.374929
21242 1 0.436441 0.753016 0.374975
21241 1 0.40823 0.405665 0.374929
20697 1 0.422409 0.58583 0.35005
20696 1 0.436566 0.263925 0.325165
20695 1 0.408375 0.918871 0.325113
20691 1 0.422409 0.0858303 0.35005
20690 1 0.436566 0.763925 0.325165
20689 1 0.408375 0.418871 0.325113
20688 1 0.39422 0.24088 0.350006
20682 1 0.39422 0.740881 0.350006
21250 1 0.464697 0.604276 0.37504
21244 1 0.464697 0.104275 0.37504
20700 1 0.478855 0.282964 0.350151
20699 1 0.450625 0.933345 0.350109
20698 1 0.464767 0.610569 0.325212
20694 1 0.478855 0.782964 0.350151
20693 1 0.450625 0.433345 0.350109
20692 1 0.464767 0.110568 0.325212
21259 1 0.492972 0.958201 0.375069
21253 1 0.492973 0.458201 0.375069
20707 1 0.492972 0.958163 0.32523
20701 1 0.492972 0.458163 0.32523
21742 1 0.0428988 0.511494 0.425136
21740 3 0.014462 0.178033 0.42506
21736 1 0.0428988 0.0114944 0.425136
21734 3 0.014462 0.678033 0.42506
21192 1 0.0570142 0.183049 0.400122
21191 3 0.0285356 0.849076 0.40008
21189 3 0.00038843 0.514867 0.40008
21186 1 0.0570141 0.683049 0.400122
21185 3 0.0285356 0.349075 0.40008
21183 3 0.00038843 0.0148673 0.40008
21754 1 0.127179 0.514359 0.425029
21752 1 0.099096 0.17985 0.425036
21751 1 0.0710153 0.84564 0.425069
21748 1 0.127179 0.0143587 0.425029
21746 1 0.099096 0.67985 0.425036
21745 1 0.0710153 0.34564 0.425069
21203 1 0.113106 0.852035 0.400056
21201 1 0.0850098 0.517334 0.400045
21197 1 0.113106 0.352035 0.400056
21195 1 0.0850098 0.0173344 0.400045
21764 1 0.18337 0.183956 0.425012
21763 1 0.155275 0.849075 0.425024
21758 1 0.18337 0.683956 0.425012
21757 1 0.155275 0.349075 0.425024
21213 1 0.169305 0.522129 0.400047
21207 1 0.169305 0.0221288 0.400047
21204 1 0.141205 0.186988 0.400056
21198 1 0.141205 0.686988 0.400056
21775 1 0.23955 0.854432 0.424971
21769 1 0.23955 0.354431 0.424971
21766 1 0.211462 0.519051 0.424994
21760 1 0.211462 0.0190512 0.424994
21225 1 0.253578 0.529351 0.39998
21219 1 0.253578 0.0293514 0.39998
21216 1 0.22549 0.193234 0.400007
21215 1 0.1974 0.857525 0.40003
21210 1 0.22549 0.693234 0.400007
21209 1 0.1974 0.357525 0.40003
21778 1 0.295713 0.526537 0.424912
21776 1 0.267633 0.190206 0.424943
21772 1 0.295713 0.0265371 0.424912
21770 1 0.267633 0.690206 0.424943
21228 1 0.309749 0.203457 0.399918
21227 1 0.281663 0.866022 0.39995
21222 1 0.309749 0.703457 0.399918
21221 1 0.281663 0.366022 0.39995
21790 1 0.379944 0.541881 0.424798
21788 1 0.351864 0.201916 0.424838
21787 1 0.323789 0.863657 0.424877
21784 1 0.379944 0.041881 0.424798
21782 1 0.351864 0.701916 0.424838
21781 1 0.323789 0.363657 0.424877
21239 1 0.365938 0.881911 0.399856
21237 1 0.337838 0.541941 0.399885
21233 1 0.365938 0.381912 0.399856
21231 1 0.337838 0.0419413 0.399885
21800 1 0.43619 0.232265 0.424711
21799 1 0.408042 0.884547 0.424756
21794 1 0.43619 0.732264 0.424711
21793 1 0.408042 0.384546 0.424756
21249 1 0.422226 0.569649 0.399835
21243 1 0.422226 0.0696497 0.399835
21240 1 0.39406 0.224067 0.399836
21234 1 0.39406 0.724067 0.399836
21802 1 0.464502 0.589847 0.424753
21796 1 0.464502 0.0898459 0.424753
21252 1 0.478799 0.278137 0.399951
21251 1 0.45047 0.920731 0.399879
21246 1 0.478799 0.778138 0.399951
21245 1 0.45047 0.420732 0.399879
21811 1 0.492973 0.958241 0.424844
21805 1 0.492973 0.458239 0.424844
21744 1 0.0570541 0.174023 0.450069
21743 3 0.0285356 0.840939 0.45004
21741 3 0.00038843 0.507175 0.45004
21738 1 0.0570541 0.674023 0.450069
21737 3 0.0285356 0.340938 0.45004
21735 3 0.00038843 0.00717512 0.45004
22286 3 0.014462 0.670031 0.47502
22287 3 0.00038843 0.999347 0.5
22288 1 0.0428792 0.00270629 0.475023
22289 3 0.0285356 0.33264 0.5
22290 1 0.0570542 0.665006 0.499993
22292 3 0.014462 0.170031 0.47502
22293 3 0.00038843 0.499346 0.5
22294 1 0.0428792 0.502706 0.475023
22295 3 0.0285356 0.83264 0.5
22296 1 0.0570542 0.165006 0.499993
21755 1 0.113167 0.842003 0.450016
21753 1 0.0850906 0.507902 0.450037
21749 1 0.113167 0.342003 0.450016
21747 1 0.0850906 0.00790213 0.450037
22297 1 0.0710388 0.336384 0.475024
22298 1 0.0991445 0.670075 0.475005
22299 1 0.0851149 0.998368 0.499986
22300 1 0.127235 0.00385374 0.474991
22301 1 0.113212 0.33182 0.499976
22303 1 0.0710388 0.836384 0.475024
22304 1 0.0991445 0.170075 0.475005
22305 1 0.0851149 0.498368 0.499986
22306 1 0.127235 0.503854 0.474991
22307 1 0.113212 0.83182 0.499976
21765 1 0.16935 0.510656 0.449995
21759 1 0.16935 0.010656 0.449995
21756 1 0.141256 0.176277 0.450005
21750 1 0.141256 0.676277 0.450005
22302 1 0.141311 0.665259 0.499965
22308 1 0.141311 0.165259 0.499965
22309 1 0.155333 0.337733 0.47498
22310 1 0.18343 0.671669 0.474967
22311 1 0.169414 0.998675 0.499952
22315 1 0.155333 0.837733 0.47498
22316 1 0.18343 0.171669 0.474967
22317 1 0.169414 0.498675 0.499952
21777 1 0.253624 0.514713 0.449939
21771 1 0.253624 0.0147128 0.449939
21768 1 0.225536 0.179823 0.449962
21767 1 0.197444 0.845159 0.449981
21762 1 0.225536 0.679823 0.449962
21761 1 0.197444 0.345159 0.449981
22312 1 0.211528 0.00565955 0.474951
22313 1 0.197518 0.332058 0.499938
22314 1 0.225623 0.665388 0.499923
22318 1 0.211528 0.50566 0.474951
22319 1 0.197518 0.832058 0.499938
22320 1 0.225623 0.165388 0.499923
22321 1 0.239624 0.339724 0.474933
22323 1 0.253727 0.998656 0.499906
22327 1 0.239624 0.839724 0.474933
22329 1 0.253727 0.498656 0.499906
21780 1 0.309783 0.18566 0.449883
21779 1 0.281706 0.849941 0.449913
21774 1 0.309783 0.68566 0.449883
21773 1 0.281706 0.349941 0.449913
22322 1 0.267716 0.673907 0.474913
22324 1 0.295803 0.00827853 0.47489
22325 1 0.281829 0.331847 0.49989
22326 1 0.309925 0.664942 0.499874
22328 1 0.267716 0.173907 0.474913
22330 1 0.295803 0.508278 0.47489
22331 1 0.281829 0.831847 0.49989
22332 1 0.309925 0.164942 0.499874
21791 1 0.365909 0.859693 0.449807
21789 1 0.337851 0.522107 0.449848
21785 1 0.365909 0.359693 0.449807
21783 1 0.337851 0.0221078 0.449848
22333 1 0.323882 0.342942 0.474865
22334 1 0.351948 0.67809 0.474838
22335 1 0.338015 0.997913 0.499861
22336 1 0.379991 0.0140282 0.474806
22337 1 0.366093 0.330646 0.499854
22339 1 0.323882 0.842942 0.474865
22340 1 0.351948 0.17809 0.474838
22341 1 0.338015 0.497913 0.499861
22342 1 0.379991 0.514029 0.474806
22343 1 0.366093 0.830645 0.499854
21801 1 0.422003 0.541804 0.449684
21795 1 0.422003 0.0418042 0.449684
21792 1 0.393958 0.199139 0.449757
21786 1 0.393958 0.69914 0.449757
22338 1 0.394151 0.662845 0.499853
22344 1 0.394151 0.162846 0.499853
22345 1 0.407994 0.351336 0.474762
22346 1 0.435957 0.691285 0.474697
22347 1 0.422186 0.993651 0.499871
22351 1 0.407994 0.851336 0.474762
22352 1 0.435957 0.191286 0.474697
22353 1 0.422186 0.49365 0.499871
21804 1 0.478602 0.262726 0.449641
21803 1 0.450116 0.892242 0.449563
21798 1 0.478602 0.762726 0.449641
21797 1 0.450116 0.392243 0.449563
22348 1 0.464008 0.0417409 0.474539
22349 1 0.450266 0.320692 0.499941
22363 1 0.492973 0.958283 0.474594
22354 1 0.464008 0.541741 0.474539
22355 1 0.450266 0.820692 0.499941
22357 1 0.492973 0.458283 0.474593
22838 3 0.014462 0.66196 0.52498
22839 3 0.00038843 0.991531 0.54996
22840 1 0.0428874 0.994071 0.524967
22841 3 0.0285356 0.324356 0.54996
22842 1 0.0570781 0.656289 0.549914
22844 3 0.014462 0.161961 0.52498
22845 3 0.00038843 0.49153 0.54996
22846 1 0.0428874 0.494071 0.524967
22847 3 0.0285356 0.824357 0.54996
22848 1 0.0570781 0.156289 0.549914
22849 1 0.0710577 0.327199 0.524956
22850 1 0.0991757 0.660243 0.524955
22851 1 0.0851381 0.989008 0.549929
22852 1 0.127278 0.993255 0.524949
22853 1 0.113237 0.321712 0.549931
22855 1 0.0710577 0.827199 0.524956
22856 1 0.0991757 0.160243 0.524955
22857 1 0.0851381 0.489008 0.549929
22858 1 0.127278 0.493255 0.524949
22859 1 0.113237 0.821712 0.549931
22854 1 0.141348 0.65432 0.54992
22860 1 0.141348 0.15432 0.54992
22861 1 0.155388 0.326225 0.524937
22862 1 0.183499 0.659088 0.524922
22863 1 0.169466 0.986766 0.549905
22867 1 0.155388 0.826225 0.524937
22868 1 0.183499 0.159088 0.524922
22869 1 0.169466 0.486766 0.549905
22864 1 0.211613 0.991801 0.524908
22865 1 0.197589 0.318992 0.549889
22866 1 0.225713 0.650921 0.549876
22870 1 0.211613 0.491801 0.524908
22871 1 0.197589 0.818992 0.549889
22872 1 0.225713 0.150921 0.549876
22873 1 0.239728 0.324315 0.524894
22875 1 0.253838 0.982472 0.549866
22879 1 0.239728 0.824315 0.524894
22881 1 0.253838 0.482472 0.549866
22874 1 0.267843 0.656566 0.524882
22876 1 0.295956 0.988453 0.524872
22877 1 0.281962 0.313514 0.54986
22878 1 0.310086 0.643834 0.549862
22880 1 0.267843 0.156566 0.524882
22882 1 0.295956 0.488453 0.524872
22883 1 0.281962 0.813514 0.54986
22884 1 0.310086 0.143835 0.549862
22885 1 0.324066 0.319807 0.524869
22886 1 0.352173 0.6503 0.524875
22887 1 0.338207 0.97306 0.549876
22888 1 0.380275 0.979275 0.5249
22889 1 0.366324 0.300566 0.549911
22891 1 0.324066 0.819807 0.524869
22892 1 0.352173 0.150301 0.524875
22893 1 0.338207 0.47306 0.549876
22894 1 0.380275 0.479274 0.5249
22895 1 0.366324 0.800567 0.549911
22890 1 0.394438 0.62523 0.549983
22896 1 0.394438 0.125229 0.549983
22897 1 0.408376 0.30532 0.524962
22898 1 0.436498 0.625128 0.525096
22899 1 0.42255 0.945036 0.550123
22903 1 0.408376 0.805321 0.524962
22904 1 0.436497 0.125127 0.525096
22905 1 0.42255 0.445037 0.550123
22900 1 0.464637 0.929467 0.525453
22901 1 0.450656 0.25662 0.550413
22902 1 0.478814 0.558903 0.550776
22906 1 0.464637 0.429469 0.525453
22907 1 0.450656 0.75662 0.550412
22908 1 0.478814 0.058902 0.550776
22909 1 0.492973 0.208359 0.525958
22915 1 0.492972 0.708357 0.525958
22356 1 0.478536 0.125008 0.500221
22350 1 0.478536 0.625008 0.500221
23390 3 0.014462 0.653985 0.57494
23391 3 0.00038843 0.983875 0.59992
23392 1 0.0429163 0.985838 0.57485
23393 3 0.0285356 0.316263 0.59992
23394 1 0.0570432 0.648213 0.599849
23396 3 0.014462 0.153986 0.57494
23397 3 0.00038843 0.483874 0.59992
23398 1 0.0429163 0.485838 0.57485
23399 3 0.0285356 0.816263 0.59992
23400 1 0.0570432 0.148213 0.599849
23942 3 0.014462 0.646258 0.6249
23944 3 0.0426091 0.978381 0.6249
23948 3 0.014462 0.146259 0.6249
23950 3 0.0426091 0.478381 0.6249
23401 1 0.0710639 0.318411 0.5749
23402 1 0.0991784 0.650755 0.574913
23403 1 0.0850906 0.980293 0.599898
23404 1 0.127288 0.982977 0.574905
23405 1 0.113213 0.312192 0.599891
23407 1 0.0710639 0.818411 0.5749
23408 1 0.0991784 0.150755 0.574913
23409 1 0.0850906 0.480293 0.599898
23410 1 0.127288 0.482977 0.574905
23411 1 0.113213 0.812192 0.599891
23953 1 0.070997 0.310638 0.62485
23954 1 0.0991095 0.642003 0.624885
23956 1 0.12727 0.973456 0.624842
23959 1 0.070997 0.810638 0.62485
23960 1 0.0991095 0.142003 0.624885
23962 1 0.12727 0.473456 0.624842
23406 1 0.141348 0.644001 0.599865
23412 1 0.141348 0.144001 0.599865
23413 1 0.155417 0.315082 0.574885
23414 1 0.183549 0.646934 0.574867
23415 1 0.169493 0.975561 0.599841
23419 1 0.155417 0.815082 0.574885
23420 1 0.183549 0.146934 0.574867
23421 1 0.169493 0.475561 0.599841
23965 1 0.155427 0.304786 0.624811
23966 1 0.183579 0.635768 0.624794
23971 1 0.155427 0.804786 0.624811
23972 1 0.183579 0.135768 0.624794
23416 1 0.211682 0.978433 0.574853
23417 1 0.197635 0.306755 0.599826
23418 1 0.225774 0.637485 0.599818
23422 1 0.211682 0.478433 0.574853
23423 1 0.197635 0.806755 0.599826
23424 1 0.225774 0.137485 0.599818
23425 1 0.239814 0.309491 0.574844
23427 1 0.25391 0.967638 0.599817
23431 1 0.239814 0.809491 0.574844
23433 1 0.25391 0.467638 0.599817
23968 1 0.211722 0.966297 0.624787
23974 1 0.211722 0.466297 0.624787
23977 1 0.23986 0.296263 0.624789
23983 1 0.23986 0.796263 0.624789
23426 1 0.267946 0.639983 0.574841
23428 1 0.296075 0.969704 0.574846
23429 1 0.282042 0.297047 0.599824
23430 1 0.310171 0.625452 0.599843
23432 1 0.267946 0.139983 0.574841
23434 1 0.296075 0.469704 0.574846
23435 1 0.282042 0.797047 0.599824
23436 1 0.310171 0.125452 0.599843
23978 1 0.267994 0.625538 0.624798
23980 1 0.296122 0.953937 0.624818
23984 1 0.267994 0.125538 0.624798
23986 1 0.296122 0.453937 0.624818
23437 1 0.324202 0.298323 0.574864
23438 1 0.352325 0.625342 0.574902
23439 1 0.338295 0.952478 0.599881
23440 1 0.380442 0.950004 0.574973
23441 1 0.366411 0.277626 0.599947
23443 1 0.324202 0.798323 0.574864
23444 1 0.352325 0.125342 0.574902
23445 1 0.338295 0.452478 0.599881
23446 1 0.380442 0.450004 0.574973
23447 1 0.366411 0.777626 0.599946
23989 1 0.324245 0.281187 0.624854
23990 1 0.352362 0.606956 0.624913
23992 1 0.380471 0.930879 0.625002
23995 1 0.324245 0.781187 0.624854
23996 1 0.352362 0.106956 0.624913
23998 1 0.380471 0.430878 0.625002
23442 1 0.39452 0.600273 0.600051
23448 1 0.39452 0.100273 0.600051
23449 1 0.408551 0.271189 0.575096
23450 1 0.436654 0.587526 0.575304
23451 1 0.422623 0.91983 0.600208
23455 1 0.408551 0.771188 0.575096
23456 1 0.436654 0.0875275 0.575304
23457 1 0.422623 0.41983 0.600208
24001 1 0.408577 0.252672 0.625125
24002 1 0.436689 0.572401 0.62527
24007 1 0.408577 0.752672 0.625125
24008 1 0.436689 0.0724 0.62527
23452 1 0.464777 0.898954 0.575563
23453 1 0.450738 0.236357 0.600396
23454 1 0.478888 0.551164 0.600524
23458 1 0.464777 0.398952 0.575563
23459 1 0.450738 0.736357 0.600396
23460 1 0.478888 0.0511653 0.600524
24004 1 0.464821 0.890711 0.625394
24010 1 0.464821 0.390712 0.625394
23461 1 0.492972 0.208394 0.575668
23467 1 0.492972 0.708398 0.575668
24013 1 0.492972 0.208442 0.625441
24019 1 0.492972 0.70844 0.625441
23945 3 0.0285356 0.308511 0.64988
23946 1 0.0567969 0.641641 0.649891
23951 3 0.0285356 0.808512 0.64988
23952 1 0.0567969 0.141641 0.649891
24496 3 0.0426091 0.970658 0.67486
24502 3 0.0426091 0.470658 0.67486
23955 1 0.0850557 0.972166 0.649876
23957 1 0.1132 0.303299 0.64982
23961 1 0.0850557 0.472166 0.649876
23963 1 0.1132 0.803299 0.64982
24505 1 0.0709028 0.302672 0.674945
24506 1 0.0992126 0.633205 0.674802
24508 1 0.127336 0.964358 0.674744
24511 1 0.0709028 0.802672 0.674945
24512 1 0.0992126 0.133205 0.674802
24514 1 0.127336 0.464358 0.674744
23958 1 0.141367 0.634444 0.649776
23964 1 0.141367 0.134444 0.649776
23967 1 0.16952 0.965328 0.649758
23973 1 0.16952 0.465328 0.649758
24517 1 0.155472 0.295282 0.67472
24518 1 0.183609 0.625748 0.674717
24523 1 0.155472 0.795282 0.67472
24524 1 0.183609 0.125748 0.674717
23969 1 0.197665 0.295763 0.649753
23970 1 0.225803 0.625661 0.649757
23975 1 0.197665 0.795763 0.649753
23976 1 0.225803 0.125661 0.649757
23979 1 0.253935 0.954925 0.649769
23985 1 0.253935 0.454925 0.649769
24520 1 0.211741 0.955667 0.674725
24526 1 0.211741 0.455667 0.674725
24529 1 0.239869 0.285002 0.674738
24535 1 0.239869 0.785002 0.674738
23981 1 0.282062 0.283426 0.649789
23982 1 0.310184 0.610971 0.649822
23987 1 0.282062 0.783426 0.649789
23988 1 0.310184 0.110972 0.649822
24530 1 0.267995 0.613669 0.674758
24532 1 0.296116 0.941529 0.674788
24536 1 0.267995 0.113669 0.674758
24538 1 0.296116 0.441529 0.674788
23991 1 0.338301 0.937345 0.649874
23993 1 0.366412 0.262318 0.64995
23997 1 0.338301 0.437345 0.649874
23999 1 0.366412 0.762318 0.64995
24541 1 0.324234 0.268438 0.674834
24542 1 0.352347 0.59426 0.674897
24544 1 0.380458 0.918905 0.67498
24547 1 0.324234 0.768439 0.674834
24548 1 0.352347 0.0942598 0.674897
24550 1 0.380458 0.418905 0.67498
24560 1 0.436694 0.0649378 0.675171