ITEM: TIMESTEP
38
ITEM: NUMBER OF ATOMS
2354
ITEM: BOX BOUNDS ss pp ss
-4.0972079223999998e+01 4.1846228795000002e+01
-4.1208122699999999e-01 4.5329187729999996e+00
-4.1417503953000001e+01 4.1417481599000006e+01
ITEM: ATOMS id type xs ys zs
17354 3 0.267786 0.754566 0.0491324
17356 3 0.295933 0.0919609 0.0491324
17360 3 0.267786 0.254566 0.0491324
17362 3 0.295933 0.59196 0.0491324
16815 3 0.338154 0.0996796 0.0247612
16817 3 0.366301 0.437335 0.0247612
16821 3 0.338154 0.599679 0.0247612
16823 3 0.366301 0.937336 0.0247612
17365 3 0.32408 0.429546 0.0491324
17366 3 0.352228 0.767312 0.0491324
17368 3 0.380375 0.105239 0.0491324
17371 3 0.32408 0.929547 0.0491324
17372 3 0.352228 0.267312 0.0491324
17374 3 0.380375 0.605238 0.0491324
16818 3 0.394448 0.775122 0.0247612
16824 3 0.394448 0.275123 0.0247612
16826 3 0.436669 0.782463 0.00038994
16827 3 0.422595 0.113017 0.0247612
16832 3 0.436669 0.282464 0.00038994
16833 3 0.422595 0.613016 0.0247612
17377 1 0.408646 0.443352 0.049197
17378 1 0.436806 0.782636 0.0494653
17383 1 0.408646 0.943352 0.049197
17384 1 0.436806 0.282636 0.0494653
16828 3 0.464816 0.120244 0.00038994
16829 3 0.450743 0.450991 0.0247612
16830 3 0.47889 0.789017 0.0247612
16834 3 0.464816 0.620243 0.00038994
16835 3 0.450743 0.950992 0.0247612
16836 3 0.47889 0.289018 0.0247612
17380 1 0.464936 0.120259 0.049486
17386 1 0.464936 0.620259 0.049486
16837 3 0.492963 0.458053 0.00038994
16843 3 0.492963 0.958054 0.00038994
17389 1 0.49299 0.458113 0.0493589
17395 1 0.49299 0.958113 0.0493589
17895 3 0.169271 0.0684164 0.122246
17901 3 0.169271 0.568416 0.122246
17346 3 0.225565 0.746875 0.0735036
17352 3 0.225565 0.246875 0.0735036
17355 3 0.253713 0.0840763 0.0735036
17361 3 0.253713 0.584076 0.0735036
17896 3 0.211492 0.0761771 0.0978748
17897 3 0.197418 0.40528 0.122246
17898 1 0.225517 0.741404 0.122339
17902 3 0.211492 0.576177 0.0978748
17903 3 0.197418 0.905281 0.122246
17904 1 0.225517 0.241404 0.122339
17905 3 0.239639 0.413356 0.0978748
17907 1 0.253832 0.0799474 0.122557
17911 3 0.239639 0.913357 0.0978748
17913 1 0.253832 0.579947 0.122557
17357 3 0.28186 0.421501 0.0735036
17358 3 0.310007 0.759149 0.0735036
17363 3 0.28186 0.921502 0.0735036
17364 3 0.310007 0.259149 0.0735036
17906 1 0.267931 0.751196 0.0981607
17908 1 0.296101 0.0888457 0.0981583
17909 1 0.281969 0.417929 0.122482
17910 1 0.310113 0.756034 0.122451
17912 1 0.267931 0.251196 0.0981607
17914 1 0.296101 0.588846 0.0981583
17915 1 0.281969 0.917929 0.122482
17916 1 0.310113 0.256034 0.122451
17367 1 0.338256 0.0981396 0.0738147
17369 1 0.366442 0.435663 0.0738346
17373 1 0.338256 0.59814 0.0738147
17375 1 0.366442 0.935663 0.0738346
17917 1 0.32419 0.426873 0.0981006
17918 1 0.352343 0.76538 0.0981318
17919 1 0.338245 0.0943171 0.122456
17920 1 0.380492 0.103762 0.0980762
17921 1 0.366395 0.433001 0.12246
17923 1 0.32419 0.926873 0.0981006
17924 1 0.352343 0.26538 0.0981318
17925 1 0.338245 0.594317 0.122456
17926 1 0.380492 0.603762 0.0980762
17927 1 0.366395 0.933001 0.12246
17370 1 0.39456 0.773683 0.0736671
17376 1 0.39456 0.273683 0.0736671
17379 1 0.422708 0.112416 0.0737692
17385 1 0.422708 0.612416 0.0737692
17922 1 0.394523 0.771708 0.12245
17928 1 0.394523 0.271708 0.12245
17929 1 0.408599 0.442112 0.0980678
17930 1 0.436733 0.780956 0.0981371
17931 1 0.422643 0.110553 0.12247
17935 1 0.408599 0.942112 0.0980678
17936 1 0.436733 0.280956 0.0981371
17937 1 0.422643 0.610553 0.12247
17381 1 0.450839 0.451012 0.0738095
17382 1 0.47895 0.78927 0.0737649
17387 1 0.450839 0.951012 0.0738095
17388 1 0.47895 0.28927 0.0737649
17932 1 0.464868 0.119748 0.0981571
17933 1 0.450776 0.449677 0.122504
17934 1 0.478905 0.78878 0.122514
17938 1 0.464868 0.619748 0.0981571
17939 1 0.450776 0.949677 0.122504
17940 1 0.478905 0.28878 0.122514
17941 1 0.492978 0.458339 0.0981383
17947 1 0.492978 0.958339 0.0981383
18437 3 0.112977 0.389948 0.170988
18443 3 0.112977 0.889948 0.170988
18438 3 0.141124 0.72631 0.170988
18444 3 0.141124 0.22631 0.170988
18445 3 0.155198 0.397433 0.146617
18446 3 0.183345 0.734197 0.146617
18447 1 0.169226 0.0619311 0.171064
18451 3 0.155198 0.897433 0.146617
18452 3 0.183345 0.234197 0.146617
18453 1 0.169226 0.561931 0.171064
18448 1 0.211657 0.0718386 0.146899
18449 1 0.197537 0.400002 0.171283
18450 1 0.225658 0.737478 0.171222
18454 1 0.211657 0.571839 0.146899
18455 1 0.197537 0.900002 0.171283
18456 1 0.225658 0.237478 0.171222
18457 1 0.239735 0.408647 0.146856
18459 1 0.253786 0.0749653 0.171175
18463 1 0.239735 0.908647 0.146856
18465 1 0.253786 0.574965 0.171175
18458 1 0.267864 0.746564 0.146829
18460 1 0.296016 0.0846787 0.146811
18461 1 0.281923 0.412982 0.171153
18462 1 0.310063 0.751339 0.171144
18464 1 0.267864 0.246564 0.146829
18466 1 0.296016 0.584679 0.146811
18467 1 0.281923 0.912982 0.171153
18468 1 0.310063 0.251339 0.171144
18469 1 0.324155 0.423047 0.146801
18470 1 0.352296 0.761737 0.146803
18471 1 0.338204 0.0900558 0.171148
18472 1 0.380435 0.100697 0.146811
18473 1 0.366344 0.429152 0.171161
18475 1 0.324155 0.923047 0.146801
18476 1 0.352296 0.261737 0.146803
18477 1 0.338204 0.590056 0.171148
18478 1 0.380435 0.600697 0.146811
18479 1 0.366344 0.929152 0.171161
18474 1 0.394481 0.768552 0.171179
18480 1 0.394481 0.268552 0.171179
18481 1 0.408565 0.439816 0.146826
18482 1 0.436694 0.779167 0.146852
18483 1 0.422616 0.108217 0.171203
18487 1 0.408565 0.939816 0.146826
18488 1 0.436694 0.279167 0.146852
18489 1 0.422616 0.608217 0.171203
18484 1 0.464828 0.118691 0.146875
18485 1 0.450751 0.44812 0.171227
18486 1 0.478887 0.788147 0.171243
18490 1 0.464828 0.618691 0.146875
18491 1 0.450751 0.94812 0.171227
18492 1 0.478887 0.288147 0.171243
18493 1 0.492957 0.458212 0.146883
18499 1 0.492957 0.958212 0.146883
18986 3 0.0989034 0.718874 0.19536
18987 3 0.0848298 0.0477342 0.219731
18988 3 0.127051 0.0550695 0.19536
18989 3 0.112977 0.383737 0.219731
18992 3 0.0989034 0.218874 0.19536
18993 3 0.0848298 0.547734 0.219731
18994 3 0.127051 0.555069 0.19536
18995 3 0.112977 0.883738 0.219731
19537 3 0.0707563 0.376555 0.244102
19538 3 0.0989034 0.712345 0.244102
19540 1 0.127182 0.0483771 0.244234
19543 3 0.0707563 0.876555 0.244102
19544 3 0.0989034 0.212345 0.244102
19546 1 0.127182 0.548377 0.244234
18990 1 0.14133 0.720214 0.219995
18996 1 0.14133 0.220214 0.219995
18997 1 0.155384 0.392116 0.195613
18998 1 0.183449 0.728345 0.195571
18999 1 0.1694 0.0568917 0.219934
19003 1 0.155384 0.892116 0.195613
19004 1 0.183449 0.228345 0.195571
19005 1 0.1694 0.556892 0.219934
19549 1 0.155288 0.384996 0.244259
19550 1 0.183417 0.721676 0.244245
19555 1 0.155288 0.884996 0.244258
19556 1 0.183417 0.221676 0.244245
19000 1 0.211564 0.0656558 0.19555
19001 1 0.197499 0.393672 0.219891
19002 1 0.225618 0.731007 0.219867
19006 1 0.211564 0.565656 0.19555
19007 1 0.197499 0.893672 0.219891
19008 1 0.225618 0.231007 0.219867
19009 1 0.239705 0.403168 0.195529
19011 1 0.253746 0.0686935 0.219845
19015 1 0.239705 0.903168 0.195529
19017 1 0.253746 0.568694 0.219845
19552 1 0.211532 0.0586835 0.24421
19558 1 0.211532 0.558683 0.24421
19561 1 0.239656 0.396127 0.244188
19567 1 0.239656 0.896127 0.244188
19010 1 0.267835 0.74098 0.195499
19012 1 0.295972 0.0792401 0.195487
19013 1 0.28188 0.406805 0.21983
19014 1 0.310016 0.745426 0.219827
19016 1 0.267835 0.24098 0.195499
19018 1 0.295972 0.57924 0.195487
19019 1 0.28188 0.906805 0.21983
19020 1 0.310016 0.245426 0.219827
19562 1 0.267785 0.734051 0.244171
19564 1 0.295918 0.0725 0.244163
19568 1 0.267785 0.234051 0.244171
19570 1 0.295918 0.5725 0.244163
19021 1 0.324111 0.417954 0.195489
19022 1 0.352252 0.757117 0.195501
19023 1 0.338156 0.0845801 0.219836
19024 1 0.380393 0.0967119 0.195522
19025 1 0.366299 0.424276 0.219856
19027 1 0.324111 0.917954 0.195489
19028 1 0.352252 0.257117 0.195501
19029 1 0.338156 0.58458 0.219836
19030 1 0.380393 0.596712 0.195522
19031 1 0.366299 0.924276 0.219856
19573 1 0.324056 0.411547 0.244168
19574 1 0.352199 0.751236 0.244184
19576 1 0.380347 0.0915841 0.244212
19579 1 0.324056 0.911547 0.244168
19580 1 0.352199 0.251236 0.244184
19582 1 0.380347 0.591584 0.244212
19026 1 0.394444 0.764494 0.219884
19032 1 0.394444 0.264494 0.219884
19033 1 0.408533 0.436684 0.195548
19034 1 0.436673 0.776982 0.195575
19035 1 0.42259 0.105167 0.219915
19039 1 0.408533 0.936684 0.195548
19040 1 0.436673 0.276982 0.195575
19041 1 0.42259 0.605167 0.219915
19585 1 0.408497 0.432563 0.244245
19586 1 0.43665 0.774083 0.244279
19591 1 0.408497 0.932563 0.244245
19592 1 0.43665 0.274083 0.244279
19036 1 0.464813 0.117511 0.195596
19037 1 0.450735 0.446202 0.219942
19038 1 0.478881 0.787471 0.21996
19042 1 0.464813 0.617511 0.195596
19043 1 0.450735 0.946202 0.219942
19044 1 0.478881 0.287471 0.21996
19588 1 0.464802 0.116004 0.244305
19594 1 0.464802 0.616004 0.244305
19045 1 0.492954 0.458151 0.195607
19051 1 0.492954 0.958151 0.195607
19597 1 0.492955 0.45814 0.244316
19603 1 0.492955 0.95814 0.244316
19530 3 0.0566827 0.705366 0.268473
19536 3 0.0566827 0.205367 0.268473
20080 3 0.0426091 0.0341968 0.292845
20086 3 0.0426091 0.534196 0.292845
19539 3 0.0848298 0.0409238 0.268473
19541 1 0.113107 0.37669 0.268569
19545 3 0.0848298 0.540923 0.268473
19547 1 0.113107 0.87669 0.268569
20089 3 0.0707563 0.369507 0.292845
20090 1 0.0990441 0.705022 0.292922
20092 1 0.127114 0.0408157 0.292896
20095 3 0.0707563 0.869508 0.292845
20096 1 0.0990441 0.205022 0.292922
20098 1 0.127114 0.540816 0.292896
19542 1 0.141184 0.712839 0.268562
19548 1 0.141184 0.212839 0.268562
19551 1 0.169318 0.0494243 0.268574
19557 1 0.169318 0.549424 0.268574
20101 1 0.155233 0.377006 0.2929
20102 1 0.183353 0.713571 0.292894
20107 1 0.155233 0.877006 0.2929
20108 1 0.183353 0.213571 0.292894
19553 1 0.197441 0.386225 0.268555
19554 1 0.225564 0.723385 0.268533
19559 1 0.197441 0.886225 0.268555
19560 1 0.225564 0.223385 0.268533
19563 1 0.253689 0.0610284 0.268513
19569 1 0.253689 0.561028 0.268513
20104 1 0.211474 0.0504731 0.292878
20110 1 0.211474 0.550473 0.292878
20113 1 0.239594 0.387798 0.292858
20119 1 0.239594 0.887798 0.292858
19565 1 0.281817 0.399219 0.2685
19566 1 0.309951 0.738049 0.268498
19571 1 0.281817 0.899219 0.2685
19572 1 0.309951 0.238049 0.268498
20122 1 0.295844 0.564152 0.29283
20114 1 0.267717 0.725652 0.29284
20116 1 0.295844 0.064152 0.29283
20120 1 0.267717 0.225652 0.29284
20134 1 0.38028 0.584677 0.292877
20132 1 0.352125 0.243555 0.292847
20131 1 0.32398 0.903414 0.292832
19575 1 0.338092 0.0775981 0.268508
19577 1 0.36624 0.417932 0.268532
20128 1 0.38028 0.0846772 0.292877
19581 1 0.338092 0.577598 0.268508
19583 1 0.36624 0.917932 0.268532
20126 1 0.352125 0.743555 0.292847
20125 1 0.32398 0.403414 0.292832
20144 1 0.436612 0.269956 0.292961
20143 1 0.408443 0.926833 0.292918
20138 1 0.436612 0.769956 0.292961
20137 1 0.408443 0.426832 0.292918
19578 1 0.394395 0.759079 0.268566
19584 1 0.394395 0.259079 0.268566
19587 1 0.422553 0.101003 0.268605
19593 1 0.422553 0.601003 0.268605
20146 1 0.464784 0.613837 0.292995
20140 1 0.464784 0.113837 0.292995
19589 1 0.450714 0.443571 0.26864
19590 1 0.478875 0.786565 0.268662
19595 1 0.450714 0.943571 0.26864
19596 1 0.478875 0.286565 0.268662
20149 1 0.492958 0.458143 0.293009
20155 1 0.492958 0.958143 0.293009
20640 1 0.0569704 0.189326 0.366033
20639 3 0.0285356 0.855618 0.365958
20638 3 0.0426091 0.526824 0.341587
20636 3 0.014462 0.192026 0.341587
20634 1 0.0569704 0.689326 0.366033
20633 3 0.0285356 0.355617 0.365958
20632 3 0.0426091 0.0268245 0.341587
20630 3 0.014462 0.692026 0.341587
20081 3 0.0285356 0.363074 0.317216
20082 3 0.0566827 0.69813 0.317216
20087 3 0.0285356 0.863074 0.317216
20088 3 0.0566827 0.198131 0.317216
20651 1 0.113116 0.859883 0.365975
20650 1 0.127143 0.532168 0.341601
20649 1 0.0850455 0.524605 0.366001
20648 1 0.0990658 0.196583 0.341613
20647 1 0.0710736 0.861412 0.341657
20645 1 0.113116 0.359883 0.365975
20644 1 0.127143 0.0321682 0.341601
20643 1 0.0850455 0.0246052 0.366001
20642 1 0.0990658 0.696583 0.341613
20641 1 0.0710736 0.361412 0.341657
20091 1 0.0850003 0.0333124 0.31728
20093 1 0.113069 0.368777 0.317246
20097 1 0.0850003 0.533312 0.31728
20099 1 0.113069 0.868777 0.317246
20661 1 0.169282 0.531245 0.36594
20660 1 0.183331 0.204308 0.341577
20659 1 0.15523 0.868075 0.341589
20655 1 0.169282 0.0312452 0.36594
20654 1 0.183331 0.704308 0.341577
20653 1 0.15523 0.368075 0.341589
20652 1 0.141191 0.195404 0.365956
20646 1 0.141191 0.695404 0.365956
20094 1 0.141175 0.704601 0.317243
20100 1 0.141175 0.204601 0.317243
20103 1 0.169282 0.0408253 0.317236
20109 1 0.169282 0.540825 0.317236
20673 1 0.253571 0.540994 0.365877
20671 1 0.239539 0.877943 0.341539
20667 1 0.253571 0.0409942 0.365877
20665 1 0.239539 0.377943 0.341539
20664 1 0.225472 0.203959 0.365901
20663 1 0.197376 0.867408 0.365922
20662 1 0.211434 0.540907 0.34156
20658 1 0.225472 0.703959 0.365901
20657 1 0.197376 0.367408 0.365922
20656 1 0.211434 0.0409071 0.34156
20121 1 0.253623 0.55187 0.317186
20105 1 0.197395 0.377418 0.317224
20106 1 0.225508 0.714404 0.317206
20111 1 0.197395 0.877418 0.317224
20112 1 0.225508 0.214404 0.317206
20115 1 0.253623 0.0518701 0.317186
20676 1 0.309781 0.217117 0.365832
20675 1 0.281673 0.878651 0.365853
20674 1 0.295762 0.553811 0.3415
20672 1 0.267648 0.215524 0.341518
20670 1 0.309781 0.717118 0.365832
20669 1 0.281673 0.378651 0.365853
20668 1 0.295762 0.0538108 0.3415
20666 1 0.267648 0.715524 0.341518
20124 1 0.309868 0.228779 0.317161
20123 1 0.281741 0.889945 0.317169
20117 1 0.281741 0.389945 0.317169
20118 1 0.309868 0.728779 0.317161
20687 1 0.366038 0.897561 0.36582
20686 1 0.38018 0.575002 0.341515
20685 1 0.337901 0.556641 0.365819
20684 1 0.352024 0.233297 0.341494
20683 1 0.323887 0.892993 0.34149
20681 1 0.366038 0.397562 0.36582
20680 1 0.38018 0.0750019 0.341515
20679 1 0.337901 0.0566412 0.365819
20678 1 0.352024 0.733297 0.341494
20677 1 0.323887 0.392993 0.34149
20135 1 0.366154 0.909378 0.317183
20133 1 0.338005 0.568532 0.317164
20129 1 0.366154 0.409378 0.317183
20127 1 0.338005 0.068532 0.317164
20697 1 0.42239 0.585406 0.365885
20696 1 0.436547 0.263584 0.341609
20695 1 0.408354 0.918389 0.341556
20691 1 0.42239 0.0854059 0.365885
20690 1 0.436547 0.763584 0.341609
20689 1 0.408354 0.418389 0.341556
20688 1 0.394199 0.240324 0.365841
20682 1 0.394199 0.740324 0.365841
20145 1 0.422493 0.594945 0.317266
20139 1 0.422493 0.0949456 0.317266
20136 1 0.394318 0.25149 0.317219
20130 1 0.394318 0.75149 0.317219
20700 1 0.478841 0.282871 0.365985
20699 1 0.450608 0.933075 0.365943
20698 1 0.464751 0.61039 0.341656
20694 1 0.478841 0.782871 0.365985
20693 1 0.450608 0.433076 0.365943
20692 1 0.464751 0.11039 0.341656
20148 1 0.478864 0.285201 0.317342
20147 1 0.450677 0.939629 0.317313
20142 1 0.478864 0.785201 0.317342
20141 1 0.450677 0.439629 0.317313
20707 1 0.49296 0.958165 0.341674
20701 1 0.49296 0.458165 0.341674
21742 1 0.0428914 0.510025 0.439137
21740 3 0.014462 0.176711 0.439072
21736 1 0.0428914 0.0100252 0.439137
21734 3 0.014462 0.676711 0.439072
21192 1 0.0569796 0.181472 0.414715
21191 3 0.0285356 0.847738 0.414701
21190 3 0.0426091 0.518941 0.390329
21189 3 0.00038843 0.5136 0.414701
21188 3 0.014462 0.184537 0.390329
21186 1 0.0569796 0.681472 0.414715
21185 3 0.0285356 0.347737 0.414701
21184 3 0.0426091 0.0189418 0.390329
21183 3 0.00038843 0.0136007 0.414701
21182 3 0.014462 0.684536 0.390329
21754 1 0.127179 0.512952 0.439053
21752 1 0.0990923 0.178389 0.439064
21751 1 0.071 0.844086 0.439075
21748 1 0.127179 0.0129521 0.439053
21746 1 0.0990923 0.678389 0.439064
21745 1 0.071 0.344086 0.439075
21203 1 0.113114 0.850575 0.414697
21202 1 0.127151 0.522923 0.390328
21201 1 0.0850171 0.515835 0.414702
21200 1 0.0990614 0.187837 0.390348
21199 1 0.0709639 0.853026 0.390358
21197 1 0.113114 0.350575 0.414697
21196 1 0.127151 0.0229225 0.390328
21195 1 0.0850171 0.0158347 0.414702
21194 1 0.0990613 0.687837 0.390348
21193 1 0.0709639 0.353026 0.390358
21764 1 0.183361 0.182641 0.439023
21763 1 0.155271 0.847707 0.439039
21758 1 0.183361 0.682641 0.439023
21757 1 0.155271 0.347707 0.439039
21213 1 0.169297 0.520758 0.414665
21212 1 0.183332 0.194006 0.390291
21211 1 0.155242 0.858321 0.39031
21207 1 0.169297 0.0207582 0.414665
21206 1 0.183332 0.694006 0.390291
21205 1 0.155242 0.358321 0.39031
21204 1 0.141206 0.185558 0.414682
21198 1 0.141206 0.685558 0.414682
21775 1 0.239532 0.853279 0.438979
21769 1 0.239532 0.353279 0.438979
21766 1 0.211448 0.517807 0.439003
21760 1 0.211448 0.0178074 0.439003
21225 1 0.253558 0.528255 0.414596
21223 1 0.239512 0.866462 0.390246
21219 1 0.253558 0.0282555 0.414596
21217 1 0.239512 0.366462 0.390246
21216 1 0.225472 0.192033 0.414622
21215 1 0.197386 0.85623 0.414645
21214 1 0.211422 0.530028 0.39027
21210 1 0.225472 0.692033 0.414622
21209 1 0.197386 0.35623 0.414645
21208 1 0.211422 0.0300281 0.39027
21778 1 0.295692 0.525579 0.438921
21776 1 0.267614 0.189152 0.438951
21772 1 0.295692 0.0255786 0.438921
21770 1 0.267614 0.689151 0.438951
21228 1 0.309727 0.202565 0.414535
21227 1 0.281642 0.86503 0.414566
21226 1 0.295698 0.541077 0.390191
21224 1 0.267604 0.203423 0.390219
21222 1 0.309727 0.702565 0.414535
21221 1 0.281642 0.36503 0.414566
21220 1 0.295698 0.0410766 0.390191
21218 1 0.267604 0.703423 0.390219
21790 1 0.379923 0.541244 0.438809
21788 1 0.351843 0.201164 0.438848
21787 1 0.323768 0.8628 0.438886
21784 1 0.379923 0.0412435 0.438809
21782 1 0.351843 0.701163 0.438848
21781 1 0.323768 0.3628 0.438886
21239 1 0.365917 0.881223 0.414475
21238 1 0.380044 0.561095 0.39014
21237 1 0.337817 0.54115 0.414503
21236 1 0.35191 0.219499 0.390146
21235 1 0.323798 0.879656 0.390165
21233 1 0.365917 0.381223 0.414475
21232 1 0.380044 0.0610948 0.39014
21231 1 0.337817 0.0411497 0.414503
21230 1 0.35191 0.719499 0.390146
21229 1 0.323798 0.379656 0.390165
21800 1 0.436172 0.231897 0.438722
21799 1 0.408022 0.884036 0.438767
21794 1 0.436172 0.731896 0.438722
21793 1 0.408022 0.384035 0.438767
21249 1 0.422207 0.569207 0.414454
21248 1 0.436423 0.252658 0.390201
21247 1 0.40821 0.90516 0.390156
21243 1 0.422207 0.0692078 0.414454
21242 1 0.436423 0.752657 0.390201
21241 1 0.40821 0.405159 0.390156
21240 1 0.39404 0.223491 0.414456
21234 1 0.39404 0.723491 0.414456
21802 1 0.464487 0.589644 0.438762
21796 1 0.464487 0.089642 0.438762
21252 1 0.478786 0.278037 0.414566
21251 1 0.450453 0.920449 0.414497
21250 1 0.464682 0.604089 0.390265
21246 1 0.478786 0.778038 0.414566
21245 1 0.450453 0.42045 0.414497
21244 1 0.464682 0.104088 0.390265
21811 1 0.492961 0.958234 0.438849
21805 1 0.492962 0.458232 0.438849
21259 1 0.492961 0.958199 0.390292
21253 1 0.492961 0.458199 0.390292
21744 1 0.0570472 0.172549 0.463467
21743 3 0.0285356 0.839562 0.463443
21741 3 0.00038843 0.505875 0.463443
21738 1 0.0570472 0.672549 0.463467
21737 3 0.0285356 0.339562 0.463443
21735 3 0.00038843 0.00587591 0.463443
22286 3 0.014462 0.668686 0.487814
22288 1 0.0428759 0.00128368 0.487816
22292 3 0.014462 0.168686 0.487814
22294 1 0.0428759 0.501284 0.487816
21755 1 0.113161 0.840576 0.463426
21753 1 0.0850809 0.506395 0.463441
21749 1 0.113161 0.340576 0.463426
21747 1 0.0850809 0.00639548 0.463441
22297 1 0.071032 0.334909 0.487816
22298 1 0.0991368 0.668614 0.4878
22300 1 0.127228 0.00246097 0.487788
22303 1 0.071032 0.834909 0.487816
22304 1 0.0991368 0.168614 0.4878
22306 1 0.127228 0.502461 0.487788
21765 1 0.169342 0.509337 0.4634
21759 1 0.169342 0.00933731 0.4634
21756 1 0.141251 0.174911 0.463414
21750 1 0.141251 0.674911 0.463414
22309 1 0.155324 0.336403 0.487777
22310 1 0.183419 0.670391 0.487763
22315 1 0.155324 0.836403 0.487777
22316 1 0.183419 0.170391 0.487763
21777 1 0.253606 0.51361 0.46334
21771 1 0.253606 0.0136096 0.46334
21768 1 0.225521 0.17863 0.463364
21767 1 0.197432 0.843895 0.463384
21762 1 0.225521 0.67863 0.463364
21761 1 0.197432 0.343895 0.463384
22312 1 0.211513 0.00444224 0.487746
22318 1 0.211513 0.504442 0.487746
22321 1 0.239606 0.338583 0.487727
22327 1 0.239606 0.838583 0.487727
21780 1 0.309762 0.184742 0.463283
21779 1 0.281687 0.848927 0.463313
21774 1 0.309762 0.684742 0.463283
21773 1 0.281686 0.348927 0.463313
22322 1 0.267696 0.672852 0.487706
22324 1 0.295781 0.00731415 0.487682
22328 1 0.267696 0.172852 0.487706
22330 1 0.295781 0.507314 0.487682
21791 1 0.365888 0.859 0.463209
21789 1 0.337829 0.521297 0.463249
21785 1 0.365888 0.359 0.463209
21783 1 0.337829 0.0212975 0.463249
22333 1 0.323859 0.342083 0.487657
22334 1 0.351925 0.677347 0.487629
22336 1 0.37997 0.0134133 0.487597
22339 1 0.323859 0.842083 0.487657
22340 1 0.351925 0.177347 0.487629
22342 1 0.37997 0.513414 0.487597
21801 1 0.421984 0.541366 0.463086
21795 1 0.421984 0.041367 0.463086
21792 1 0.393938 0.198572 0.463158
21786 1 0.393938 0.698573 0.463158
22345 1 0.407974 0.350848 0.487552
22346 1 0.435939 0.690921 0.487487
22351 1 0.407974 0.850848 0.487552
22352 1 0.435939 0.190922 0.487487
21804 1 0.478588 0.262598 0.463041
21803 1 0.450099 0.891941 0.462966
21798 1 0.478588 0.762599 0.463041
21797 1 0.450099 0.391943 0.462966
22348 1 0.463992 0.0414699 0.487331
22354 1 0.463992 0.54147 0.487331
22357 1 0.492961 0.458295 0.487382
22363 1 0.492961 0.958295 0.487382
22287 3 0.00038843 0.998039 0.512186
22289 3 0.0285356 0.331253 0.512186
22290 1 0.0570499 0.663565 0.512176
22293 3 0.00038843 0.498038 0.512186
22295 3 0.0285356 0.831254 0.512186
22296 1 0.0570499 0.163565 0.512176
22838 3 0.014462 0.66062 0.536557
22839 3 0.00038843 0.99024 0.560928
22840 1 0.0428838 0.992664 0.536541
22841 3 0.0285356 0.322989 0.560928
22842 1 0.0570719 0.65487 0.560875
22844 3 0.014462 0.16062 0.536557
22845 3 0.00038843 0.490239 0.560928
22846 1 0.0428838 0.492664 0.536541
22847 3 0.0285356 0.82299 0.560928
22848 1 0.0570719 0.15487 0.560875
22299 1 0.0851082 0.996911 0.512168
22301 1 0.113204 0.330398 0.51216
22305 1 0.0851082 0.496911 0.512168
22307 1 0.113204 0.830398 0.51216
22849 1 0.0710514 0.325762 0.536527
22850 1 0.0991677 0.658815 0.536526
22851 1 0.085129 0.987576 0.560887
22852 1 0.127268 0.991876 0.536523
22853 1 0.113226 0.320316 0.560893
22855 1 0.0710514 0.825762 0.536527
22856 1 0.0991677 0.158815 0.536526
22857 1 0.085129 0.487576 0.560887
22858 1 0.127268 0.491876 0.536523
22859 1 0.113226 0.820316 0.560893
22302 1 0.141302 0.663901 0.512151
22308 1 0.141302 0.163901 0.512151
22311 1 0.169402 0.997376 0.51214
22317 1 0.169402 0.497376 0.51214
22854 1 0.141333 0.65298 0.560889
22860 1 0.141333 0.15298 0.560889
22861 1 0.155374 0.324902 0.536515
22862 1 0.183482 0.657823 0.536503
22863 1 0.169447 0.985478 0.560878
22867 1 0.155374 0.824902 0.536515
22868 1 0.183482 0.157823 0.536503
22869 1 0.169447 0.485478 0.560878
22313 1 0.197503 0.33082 0.512126
22314 1 0.225604 0.664222 0.51211
22319 1 0.197503 0.83082 0.512126
22320 1 0.225604 0.164222 0.51211
22323 1 0.253706 0.99757 0.512093
22329 1 0.253706 0.497569 0.512093
22864 1 0.211592 0.990606 0.536489
22865 1 0.197564 0.317768 0.560865
22866 1 0.225685 0.649785 0.560851
22870 1 0.211592 0.490606 0.536489
22871 1 0.197564 0.817768 0.560865
22872 1 0.225685 0.149785 0.560851
22873 1 0.239704 0.323203 0.536474
22875 1 0.253807 0.981433 0.560838
22879 1 0.239704 0.823203 0.536474
22881 1 0.253807 0.481433 0.560838
22325 1 0.281805 0.33085 0.512075
22326 1 0.309901 0.664047 0.512058
22331 1 0.281805 0.83085 0.512075
22332 1 0.309901 0.164047 0.512058
22874 1 0.267816 0.655544 0.53646
22876 1 0.295928 0.987529 0.536448
22877 1 0.281931 0.312577 0.560829
22878 1 0.310054 0.643008 0.560827
22880 1 0.267816 0.155544 0.53646
22882 1 0.295928 0.487529 0.536448
22883 1 0.281931 0.812577 0.560829
22884 1 0.310054 0.143008 0.560827
22335 1 0.33799 0.997134 0.512044
22337 1 0.366069 0.329996 0.512034
22341 1 0.33799 0.497134 0.512044
22343 1 0.366069 0.829996 0.512034
22885 1 0.324039 0.318999 0.536442
22886 1 0.352147 0.649627 0.536446
22887 1 0.338177 0.972365 0.560837
22888 1 0.380251 0.978742 0.536467
22889 1 0.366297 0.300014 0.560868
22891 1 0.324039 0.818999 0.536442
22892 1 0.352147 0.149627 0.536446
22893 1 0.338177 0.472364 0.560837
22894 1 0.380251 0.478741 0.536467
22895 1 0.366297 0.800014 0.560868
22338 1 0.394129 0.662329 0.512031
22344 1 0.394129 0.162329 0.512031
22347 1 0.422166 0.993265 0.512046
22353 1 0.422166 0.493264 0.512046
22890 1 0.394413 0.62482 0.560935
22896 1 0.394413 0.12482 0.560935
22897 1 0.408354 0.304926 0.536525
22898 1 0.436478 0.624875 0.536653
22899 1 0.422527 0.944765 0.561069
22903 1 0.408354 0.804927 0.536525
22904 1 0.436478 0.124874 0.536653
22905 1 0.422527 0.444765 0.561069
22349 1 0.450248 0.320435 0.512113
22350 1 0.478521 0.624932 0.512384
22355 1 0.450248 0.820435 0.512113
22356 1 0.478521 0.124932 0.512384
22900 1 0.464619 0.929365 0.536999
22901 1 0.450636 0.256479 0.561349
22902 1 0.478796 0.558881 0.561702
22906 1 0.464619 0.429367 0.536999
22907 1 0.450636 0.75648 0.561349
22908 1 0.478796 0.0588792 0.561702
22909 1 0.492957 0.208387 0.53749
22915 1 0.492957 0.708385 0.53749
23390 3 0.014462 0.652676 0.585299
23391 3 0.00038843 0.982624 0.609671
23392 1 0.0429097 0.984446 0.585205
23393 3 0.0285356 0.314943 0.609671
23394 1 0.0570298 0.646749 0.609585
23396 3 0.014462 0.152677 0.585299
23397 3 0.00038843 0.482623 0.609671
23398 1 0.0429097 0.484446 0.585205
23399 3 0.0285356 0.814944 0.609671
23400 1 0.0570298 0.146749 0.609585
23401 1 0.0710525 0.316964 0.585245
23402 1 0.0991646 0.64933 0.58526
23403 1 0.0850701 0.978791 0.609629
23404 1 0.127272 0.981619 0.58526
23405 1 0.113194 0.31083 0.609627
23407 1 0.0710525 0.816964 0.585245
23408 1 0.0991646 0.14933 0.58526
23409 1 0.0850701 0.478791 0.609629
23410 1 0.127272 0.481619 0.58526
23411 1 0.113194 0.81083 0.609627
23406 1 0.141321 0.642686 0.60962
23412 1 0.141321 0.142686 0.60962
23413 1 0.155394 0.313774 0.58525
23414 1 0.183519 0.645679 0.585237
23415 1 0.169455 0.974288 0.609606
23419 1 0.155394 0.813774 0.58525
23420 1 0.183519 0.145679 0.585237
23421 1 0.169455 0.474288 0.609606
23416 1 0.211647 0.977267 0.585223
23417 1 0.197591 0.305561 0.609592
23418 1 0.225728 0.636407 0.60958
23422 1 0.211647 0.477267 0.585223
23423 1 0.197591 0.805561 0.609592
23424 1 0.225728 0.136407 0.60958
23425 1 0.239777 0.308434 0.585211
23427 1 0.253865 0.966689 0.609573
23431 1 0.239777 0.808434 0.585211
23433 1 0.253865 0.466689 0.609573
23426 1 0.267909 0.639037 0.585203
23428 1 0.29604 0.96887 0.585203
23429 1 0.282 0.296219 0.609573
23430 1 0.310133 0.624742 0.609587
23432 1 0.267909 0.139037 0.585203
23434 1 0.29604 0.46887 0.585203
23435 1 0.282 0.796219 0.609573
23436 1 0.310133 0.124742 0.609587
23437 1 0.324169 0.297615 0.585216
23438 1 0.352294 0.624776 0.585249
23439 1 0.33826 0.951895 0.609619
23440 1 0.380413 0.94958 0.585315
23441 1 0.366381 0.277181 0.609678
23443 1 0.324169 0.797615 0.585216
23444 1 0.352294 0.124776 0.585249
23445 1 0.33826 0.451895 0.609619
23446 1 0.380414 0.44958 0.585315
23447 1 0.366381 0.777181 0.609678
23442 1 0.394493 0.599961 0.609778
23448 1 0.394493 0.099961 0.609778
23449 1 0.408526 0.270897 0.585432
23450 1 0.436631 0.587358 0.585632
23451 1 0.422599 0.919636 0.609928
23455 1 0.408526 0.770897 0.585431
23456 1 0.436631 0.0873589 0.585632
23457 1 0.422599 0.419636 0.609928
23452 1 0.464757 0.898896 0.585883
23453 1 0.450716 0.236273 0.610109
23454 1 0.478868 0.551171 0.610233
23458 1 0.464757 0.398893 0.585883
23459 1 0.450716 0.736273 0.610109
23460 1 0.478868 0.0511725 0.610233
23461 1 0.492954 0.208434 0.585985
23467 1 0.492955 0.708438 0.585985
23942 3 0.014462 0.645004 0.634042
23944 3 0.0426091 0.97706 0.634042
23945 3 0.0285356 0.307262 0.658413
23946 3 0.0566827 0.639048 0.658413
23948 3 0.014462 0.145004 0.634042
23950 3 0.0426091 0.47706 0.634042
23951 3 0.0285356 0.807262 0.658413
23952 3 0.0566827 0.139048 0.658413
24496 3 0.0426091 0.969421 0.682784
24502 3 0.0426091 0.469421 0.682784
23953 1 0.0709603 0.308926 0.633968
23954 1 0.0990815 0.640609 0.63399
23955 1 0.0850178 0.970683 0.65832
23956 1 0.127233 0.972168 0.633983
23957 1 0.113138 0.302072 0.658341
23959 1 0.0709603 0.808926 0.633968
23960 1 0.0990815 0.140609 0.63399
23961 1 0.0850178 0.470683 0.65832
23962 1 0.127233 0.472168 0.633983
23963 1 0.113138 0.802072 0.658341
24505 1 0.0707929 0.300953 0.682766
24506 1 0.0990974 0.632263 0.682676
24508 1 0.127208 0.96335 0.682695
24511 1 0.0707929 0.800953 0.682766
24512 1 0.0990974 0.132263 0.682676
24514 1 0.127208 0.46335 0.682695
23958 1 0.141293 0.63324 0.658334
23964 1 0.141293 0.13324 0.658334
23965 1 0.155376 0.303516 0.633973
23966 1 0.183521 0.634559 0.633959
23967 1 0.169439 0.96413 0.658323
23971 1 0.155376 0.803516 0.633973
23972 1 0.183521 0.134559 0.633959
23973 1 0.169439 0.46413 0.658323
24517 1 0.155358 0.294163 0.682684
24518 1 0.183505 0.624642 0.682673
24523 1 0.155358 0.794163 0.682684
24524 1 0.183505 0.124642 0.682673
23968 1 0.211663 0.965198 0.633947
23969 1 0.197588 0.294653 0.65831
23970 1 0.225733 0.624695 0.658302
23974 1 0.211663 0.465198 0.633947
23975 1 0.197588 0.794653 0.65831
23976 1 0.225733 0.124695 0.658302
23977 1 0.239805 0.295309 0.633939
23979 1 0.253875 0.954115 0.658301
23983 1 0.239805 0.795309 0.633939
23985 1 0.253875 0.454115 0.658301
24520 1 0.211655 0.954692 0.682662
24526 1 0.211655 0.454692 0.682662
24529 1 0.239799 0.284186 0.68266
24535 1 0.239799 0.784186 0.68266
23978 1 0.267943 0.624726 0.633939
23980 1 0.296078 0.953247 0.633952
23981 1 0.282011 0.282752 0.658312
23982 1 0.310142 0.610415 0.658339
23984 1 0.267943 0.124726 0.633939
23986 1 0.296078 0.453247 0.633952
23987 1 0.282011 0.782752 0.658312
23988 1 0.310142 0.110415 0.658339
24530 1 0.267938 0.612995 0.682669
24532 1 0.296071 0.940978 0.682692
24536 1 0.267938 0.112995 0.682669
24538 1 0.296071 0.440978 0.682692
23989 1 0.324207 0.28061 0.633981
23990 1 0.352329 0.606493 0.634035
23991 1 0.338265 0.93689 0.658386
23992 1 0.380442 0.930535 0.634118
23993 1 0.366381 0.26196 0.658456
23995 1 0.324207 0.78061 0.633981