ITEM: TIMESTEP
39
ITEM: NUMBER OF ATOMS
2360
ITEM: BOX BOUNDS ss pp ss
-4.0972079223999998e+01 4.1846228795000002e+01
-4.1208122699999999e-01 4.5329187729999996e+00
-4.0323992778000004e+01 4.0492202913000000e+01
ITEM: ATOMS id type xs ys zs
17355 3 0.253713 0.0849515 0.0503597
17361 3 0.253713 0.584951 0.0503597
17356 3 0.295933 0.0926738 0.0253797
17357 3 0.28186 0.422317 0.0503597
17358 3 0.310007 0.759892 0.0503597
17362 3 0.295933 0.592673 0.0253797
17363 3 0.28186 0.922317 0.0503597
17364 3 0.310007 0.259893 0.0503597
16817 3 0.366301 0.437796 0.00039968
16823 3 0.366301 0.937796 0.00039968
17365 3 0.32408 0.430185 0.0253797
17366 3 0.352228 0.767866 0.0253797
17367 3 0.338154 0.097667 0.0503597
17368 3 0.380375 0.105698 0.0253797
17369 1 0.366392 0.436772 0.0506829
17371 3 0.32408 0.930186 0.0253797
17372 3 0.352228 0.267866 0.0253797
17373 3 0.338154 0.597666 0.0503597
17374 3 0.380375 0.605697 0.0253797
17375 1 0.366392 0.936772 0.0506829
16818 3 0.394448 0.775492 0.00039968
16824 3 0.394448 0.275492 0.00039968
16827 3 0.422595 0.113288 0.00039968
16833 3 0.422595 0.613288 0.00039968
17370 1 0.394557 0.774287 0.0507104
17376 1 0.394557 0.274287 0.0507104
17377 3 0.408522 0.443658 0.0253797
17378 3 0.436669 0.781722 0.0253797
17379 1 0.422636 0.112115 0.0505801
17383 3 0.408522 0.943659 0.0253797
17384 3 0.436669 0.281723 0.0253797
17385 1 0.422636 0.612115 0.0505801
16829 3 0.450743 0.451159 0.00039968
16830 3 0.47889 0.789078 0.00039968
16835 3 0.450743 0.95116 0.00039968
16836 3 0.47889 0.289079 0.00039968
17380 1 0.464818 0.119866 0.025422
17381 1 0.450756 0.450402 0.0505757
17382 1 0.478891 0.788843 0.0505874
17386 1 0.464818 0.619866 0.025422
17387 1 0.450756 0.950402 0.0505757
17388 1 0.478891 0.288843 0.0505874
17389 1 0.492962 0.458052 0.0254257
17395 1 0.492962 0.958052 0.0254257
18445 3 0.155198 0.398669 0.1253
18446 3 0.183345 0.735422 0.1253
18451 3 0.155198 0.898669 0.1253
18452 3 0.183345 0.235423 0.1253
17896 3 0.211492 0.0771987 0.0753397
17897 3 0.197418 0.406403 0.10032
17898 3 0.225565 0.7435 0.10032
17902 3 0.211492 0.577198 0.0753397
17903 3 0.197418 0.906404 0.10032
17904 3 0.225565 0.243501 0.10032
17905 3 0.239639 0.414337 0.0753397
17907 1 0.253898 0.0814201 0.100556
17911 3 0.239639 0.914337 0.0753397
17913 1 0.253898 0.58142 0.100556
18448 1 0.211447 0.0714222 0.125386
18454 1 0.211447 0.571422 0.125386
18457 1 0.239772 0.409948 0.12559
18463 1 0.239772 0.909948 0.12559
17906 3 0.267786 0.751714 0.0753397
17908 1 0.296021 0.0900211 0.0756392
17909 1 0.282041 0.419089 0.100672
17910 1 0.31014 0.756978 0.100572
17912 3 0.267786 0.251715 0.0753397
17914 1 0.296021 0.590021 0.0756392
17915 1 0.282041 0.919089 0.100672
17916 1 0.31014 0.256978 0.100572
18458 1 0.267892 0.747786 0.12555
18460 1 0.296051 0.0858788 0.125552
18464 1 0.267892 0.247786 0.12555
18466 1 0.296051 0.585879 0.125552
17917 1 0.324225 0.427728 0.0756329
17918 1 0.352321 0.765788 0.0755798
17919 1 0.338262 0.0951453 0.100541
17920 1 0.380466 0.104274 0.0756199
17921 1 0.366384 0.433475 0.100553
17923 1 0.324225 0.927728 0.0756329
17924 1 0.352321 0.265788 0.0755798
17925 1 0.338262 0.595145 0.100541
17926 1 0.380466 0.604274 0.0756199
17927 1 0.366384 0.933475 0.100553
18469 1 0.324184 0.423991 0.125521
18470 1 0.352311 0.762443 0.12551
18472 1 0.380446 0.101209 0.125514
18475 1 0.324184 0.923991 0.125521
18476 1 0.352311 0.262443 0.12551
18478 1 0.380446 0.601209 0.125514
17922 1 0.394528 0.772137 0.100562
17928 1 0.394528 0.272137 0.100562
17929 1 0.408601 0.442529 0.0755763
17930 1 0.43671 0.780768 0.0755284
17931 1 0.422656 0.110822 0.100537
17935 1 0.408601 0.942529 0.0755763
17936 1 0.43671 0.280768 0.0755284
17937 1 0.422656 0.610822 0.100537
18481 1 0.408583 0.440234 0.125514
18482 1 0.436712 0.779386 0.125505
18487 1 0.408583 0.940234 0.125514
18488 1 0.436712 0.279386 0.125505
17932 1 0.46483 0.119351 0.0755225
17933 1 0.450774 0.44959 0.100517
17934 1 0.478897 0.78856 0.100514
17938 1 0.46483 0.619351 0.0755225
17939 1 0.450774 0.94959 0.100517
17940 1 0.478897 0.28856 0.100514
18484 1 0.464836 0.118679 0.1255
18490 1 0.464836 0.618679 0.1255
17941 1 0.492959 0.458077 0.075525
17947 1 0.492959 0.958077 0.075525
18493 1 0.492959 0.458087 0.1255
18499 1 0.492959 0.958087 0.1255
18986 3 0.0989034 0.720265 0.17526
18988 3 0.127051 0.0564818 0.17526
18992 3 0.0989034 0.220266 0.17526
18994 3 0.127051 0.556481 0.17526
18438 3 0.141124 0.727636 0.15028
18444 3 0.141124 0.227637 0.15028
18447 3 0.169271 0.0642693 0.15028
18453 3 0.169271 0.564269 0.15028
18997 1 0.155153 0.391928 0.175332
18998 1 0.183467 0.729826 0.17555
19003 1 0.155153 0.891928 0.175332
19004 1 0.183467 0.229826 0.17555
18449 1 0.197585 0.401753 0.150557
18450 1 0.225665 0.73845 0.150504
18455 1 0.197585 0.901753 0.150557
18456 1 0.225665 0.23845 0.150504
18459 1 0.253788 0.0761823 0.150484
18465 1 0.253788 0.576182 0.150484
19000 1 0.211587 0.0671173 0.175481
19006 1 0.211587 0.567117 0.175481
19009 1 0.239712 0.404382 0.175433
19015 1 0.239712 0.904382 0.175433
18461 1 0.281941 0.414154 0.150485
18462 1 0.310088 0.752442 0.150476
18467 1 0.281941 0.914154 0.150485
18468 1 0.310088 0.252442 0.150476
19010 1 0.267846 0.742174 0.175419
19012 1 0.295988 0.0803689 0.175415
19016 1 0.267846 0.242174 0.175419
19018 1 0.295988 0.580369 0.175415
18471 1 0.338226 0.0909444 0.150466
18473 1 0.366364 0.429821 0.15047
18477 1 0.338226 0.590944 0.150466
18479 1 0.366364 0.929821 0.15047
19021 1 0.324133 0.418953 0.175417
19022 1 0.352275 0.757933 0.175421
19024 1 0.380416 0.0973526 0.175432
19027 1 0.324133 0.918953 0.175417
19028 1 0.352275 0.257933 0.175421
19030 1 0.380416 0.597353 0.175432
18474 1 0.394502 0.769066 0.150479
18480 1 0.394502 0.269066 0.150479
18483 1 0.422638 0.108587 0.150483
18489 1 0.422638 0.608587 0.150483
19033 1 0.408557 0.437165 0.175446
19034 1 0.436695 0.777297 0.175456
19039 1 0.408557 0.937165 0.175446
19040 1 0.436695 0.277297 0.175456
18485 1 0.450769 0.448299 0.150484
18486 1 0.478897 0.788142 0.150485
18491 1 0.450769 0.948299 0.150484
18492 1 0.478897 0.288142 0.150485
19036 1 0.46483 0.117641 0.175463
19042 1 0.46483 0.617641 0.175463
19045 1 0.492962 0.458097 0.175467
19051 1 0.492962 0.958097 0.175467
18987 3 0.0848298 0.0491933 0.20024
18989 3 0.112977 0.385229 0.20024
18993 3 0.0848298 0.549193 0.20024
18995 3 0.112977 0.88523 0.20024
19537 3 0.0707563 0.378074 0.22522
19538 3 0.0989034 0.713908 0.22522
19540 1 0.127266 0.0501754 0.22548
19543 3 0.0707563 0.878074 0.22522
19544 3 0.0989034 0.213909 0.22522
19546 1 0.127266 0.550175 0.22548
18990 1 0.141314 0.722079 0.200492
18996 1 0.141314 0.222079 0.200492
18999 1 0.169382 0.0581054 0.200443
19005 1 0.169382 0.558105 0.200443
19549 1 0.15534 0.386611 0.225412
19550 1 0.183438 0.723105 0.225365
19555 1 0.15534 0.886611 0.225412
19556 1 0.183438 0.223105 0.225365
19001 1 0.197496 0.395178 0.200417
19002 1 0.225634 0.73242 0.200393
19007 1 0.197496 0.895178 0.200417
19008 1 0.225634 0.23242 0.200393
19011 1 0.253759 0.0699444 0.200364
19017 1 0.253759 0.569944 0.200364
19552 1 0.211553 0.0601242 0.225339
19558 1 0.211553 0.560124 0.225339
19561 1 0.239676 0.397472 0.225316
19567 1 0.239676 0.897472 0.225316
19013 1 0.281895 0.40795 0.200355
19014 1 0.310036 0.746472 0.200357
19019 1 0.281895 0.90795 0.200355
19020 1 0.310036 0.246472 0.200357
19562 1 0.267804 0.735253 0.225301
19564 1 0.295938 0.0735908 0.225295
19568 1 0.267804 0.235253 0.225301
19570 1 0.295938 0.573591 0.225295
19023 1 0.338179 0.0854916 0.200364
19025 1 0.366324 0.425031 0.200377
19029 1 0.338179 0.585492 0.200364
19031 1 0.366324 0.925031 0.200377
19573 1 0.324079 0.412519 0.2253
19574 1 0.352224 0.75207 0.225313
19576 1 0.380372 0.0922729 0.225335
19579 1 0.324079 0.912519 0.2253
19580 1 0.352224 0.25207 0.225313
19582 1 0.380372 0.592273 0.225335
19026 1 0.394469 0.765084 0.200396
19032 1 0.394469 0.265084 0.200396
19035 1 0.422613 0.105594 0.200415
19041 1 0.422613 0.605594 0.200415
19585 1 0.408522 0.433094 0.22536
19586 1 0.436672 0.774445 0.225386
19591 1 0.408522 0.933094 0.22536
19592 1 0.436672 0.274445 0.225386
19037 1 0.450755 0.446454 0.200431
19038 1 0.478895 0.787529 0.20044
19043 1 0.450755 0.946454 0.200431
19044 1 0.478895 0.287529 0.20044
19588 1 0.46482 0.116174 0.225404
19594 1 0.46482 0.616174 0.225404
19597 1 0.492967 0.458113 0.225412
19603 1 0.492967 0.958113 0.225412
19530 3 0.0566827 0.706936 0.2502
19536 3 0.0566827 0.206936 0.2502
20080 3 0.0426091 0.0358067 0.27518
20081 3 0.0285356 0.364713 0.30016
20082 3 0.0566827 0.699843 0.30016
20086 3 0.0426091 0.535806 0.27518
20087 3 0.0285356 0.864714 0.30016
20088 3 0.0566827 0.199844 0.30016
19539 3 0.0848298 0.0425489 0.2502
19541 1 0.113128 0.378362 0.250319
19545 3 0.0848298 0.542548 0.2502
19547 1 0.113128 0.878362 0.250319
20089 3 0.0707563 0.371182 0.27518
20090 1 0.099081 0.706669 0.275253
20091 1 0.0851601 0.0348208 0.300217
20092 1 0.127165 0.0424842 0.275247
20093 1 0.113155 0.37026 0.300193
20095 3 0.0707563 0.871183 0.27518
20096 1 0.099081 0.206669 0.275253
20097 1 0.0851601 0.534821 0.300217
20098 1 0.127165 0.542484 0.275247
20099 1 0.113155 0.87026 0.300193
19542 1 0.141242 0.714692 0.250341
19548 1 0.141242 0.214692 0.250341
19551 1 0.169369 0.051047 0.250327
19557 1 0.169369 0.551047 0.250327
20094 1 0.141239 0.706188 0.300203
20100 1 0.141239 0.206188 0.300203
20101 1 0.155291 0.378717 0.275264
20102 1 0.183403 0.715153 0.275248
20103 1 0.169336 0.0424281 0.300201
20107 1 0.155291 0.878717 0.275264
20108 1 0.183403 0.215153 0.275248
20109 1 0.169336 0.542428 0.300201
19553 1 0.197478 0.387695 0.250292
19554 1 0.225595 0.724755 0.250269
19559 1 0.197478 0.887695 0.250292
19560 1 0.225595 0.224755 0.250269
19563 1 0.253716 0.0622911 0.25025
19569 1 0.253716 0.562291 0.25025
20104 1 0.211516 0.051902 0.275226
20105 1 0.197441 0.378929 0.300187
20106 1 0.225548 0.71579 0.300164
20110 1 0.211516 0.551902 0.275226
20111 1 0.197441 0.878929 0.300187
20112 1 0.225548 0.21579 0.300164
20113 1 0.239629 0.389114 0.275204
20115 1 0.253658 0.053133 0.300142
20119 1 0.239629 0.889114 0.275204
20121 1 0.253658 0.553133 0.300142
19565 1 0.281842 0.40036 0.250238
19566 1 0.309976 0.739071 0.250235
19571 1 0.281842 0.90036 0.250238
19572 1 0.309976 0.239071 0.250235
20114 1 0.267747 0.72685 0.275186
20116 1 0.295873 0.0652252 0.275175
20117 1 0.281773 0.391085 0.300123
20118 1 0.309898 0.729796 0.300113
20120 1 0.267747 0.22685 0.275186
20122 1 0.295873 0.565225 0.275175
20123 1 0.281773 0.891085 0.300123
20124 1 0.309898 0.229796 0.300113
19575 1 0.338118 0.0784959 0.250244
19577 1 0.366266 0.418697 0.250264
19581 1 0.338118 0.578496 0.250244
19583 1 0.366266 0.918697 0.250264
20135 1 0.366181 0.910151 0.300131
20134 1 0.380306 0.585381 0.275215
20133 1 0.338033 0.569428 0.300114
20125 1 0.324008 0.40437 0.275175
20126 1 0.352152 0.74439 0.275189
20127 1 0.338033 0.0694283 0.300114
20128 1 0.380306 0.0853811 0.275215
20129 1 0.366181 0.410151 0.300131
20131 1 0.324008 0.90437 0.275175
20132 1 0.352152 0.24439 0.275189
20145 1 0.422516 0.595419 0.300207
20144 1 0.436634 0.270331 0.27529
20143 1 0.408467 0.927383 0.275251
19578 1 0.39442 0.759705 0.250293
20139 1 0.422517 0.0954189 0.300207
19584 1 0.39442 0.259705 0.250293
20138 1 0.436634 0.770331 0.27529
20137 1 0.408467 0.427383 0.275251
19587 1 0.422576 0.101464 0.250326
20136 1 0.394343 0.252124 0.300163
19593 1 0.422576 0.601464 0.250326
20130 1 0.394343 0.752123 0.300163
20148 1 0.47888 0.285295 0.300279
20147 1 0.450697 0.93992 0.300251
20146 1 0.464802 0.614024 0.275321
20142 1 0.47888 0.785295 0.300279
20141 1 0.450697 0.43992 0.300251
20140 1 0.464802 0.114024 0.275321
19589 1 0.450734 0.443848 0.250356
19590 1 0.47889 0.786647 0.250373
19595 1 0.450734 0.943848 0.250356
19596 1 0.47889 0.286647 0.250373
20149 1 0.492971 0.458129 0.275333
20155 1 0.492971 0.958129 0.275333
21190 3 0.0426091 0.520788 0.3751
21188 3 0.014462 0.186287 0.3751
21184 3 0.0426091 0.0207882 0.3751
21182 3 0.014462 0.686286 0.3751
20640 1 0.056767 0.192455 0.350028
20639 3 0.0285356 0.857368 0.35012
20638 3 0.0426091 0.528562 0.32514
20634 1 0.056767 0.692455 0.350028
20633 3 0.0285356 0.357367 0.35012
20632 3 0.0426091 0.0285622 0.32514
21202 1 0.127147 0.524816 0.375095
21200 1 0.0990268 0.189865 0.375084
21199 1 0.0709124 0.855184 0.375067
21196 1 0.127147 0.0248157 0.375095
21194 1 0.0990268 0.689865 0.375084
21193 1 0.0709124 0.355184 0.375067
20651 1 0.113127 0.861748 0.350138
20650 1 0.1272 0.533835 0.325167
20649 1 0.0850473 0.526636 0.350126
20648 1 0.0991362 0.198261 0.325172
20647 1 0.0710719 0.8628 0.325174
20645 1 0.113127 0.361748 0.350138
20644 1 0.1272 0.0338348 0.325167
20643 1 0.0850473 0.0266356 0.350126
20642 1 0.0991362 0.698261 0.325172
20641 1 0.0710719 0.3628 0.325174
21212 1 0.183352 0.195655 0.375075
21211 1 0.155253 0.860091 0.375089
21206 1 0.183352 0.695655 0.375075
21205 1 0.155253 0.360091 0.375089
20661 1 0.169312 0.532917 0.350119
20660 1 0.183374 0.205881 0.32515
20659 1 0.155277 0.869699 0.325162
20655 1 0.169312 0.0329166 0.350119
20654 1 0.183374 0.705881 0.32515
20653 1 0.155277 0.369699 0.325162
20652 1 0.141216 0.197172 0.350131
20646 1 0.141216 0.697172 0.350131
21223 1 0.239541 0.867858 0.375028
21217 1 0.239541 0.367858 0.375028
21214 1 0.211448 0.53156 0.375054
21208 1 0.211448 0.0315604 0.375054
20673 1 0.253603 0.542304 0.35005
20671 1 0.239576 0.879285 0.325106
20667 1 0.253603 0.042304 0.35005
20665 1 0.239576 0.379285 0.325106
20664 1 0.225505 0.205404 0.350077
20663 1 0.197408 0.868974 0.350101
20662 1 0.211473 0.542377 0.32513
20658 1 0.225505 0.705404 0.350077
20657 1 0.197408 0.368974 0.350101
20656 1 0.211473 0.0423775 0.32513
21226 1 0.295728 0.542214 0.374969
21224 1 0.267633 0.204683 0.374999
21220 1 0.295728 0.0422136 0.374969
21218 1 0.267633 0.704683 0.374999
20676 1 0.309811 0.218168 0.35
20675 1 0.281704 0.879832 0.350023
20674 1 0.295794 0.554907 0.325061
20672 1 0.267682 0.216745 0.325081
20670 1 0.309811 0.718168 0.35
20669 1 0.281704 0.379832 0.350023
20668 1 0.295794 0.0549071 0.325061
20666 1 0.267682 0.716745 0.325081
21238 1 0.380072 0.561852 0.374911
21236 1 0.35194 0.220389 0.374919
21235 1 0.323828 0.880669 0.37494
21232 1 0.380072 0.0618525 0.374911
21230 1 0.35194 0.720389 0.374919
21229 1 0.323828 0.380669 0.37494
20687 1 0.366066 0.898362 0.349983
20686 1 0.380206 0.575718 0.325069
20685 1 0.33793 0.557568 0.349985
20684 1 0.352053 0.234141 0.32505
20683 1 0.323916 0.893963 0.325049
20681 1 0.366066 0.398362 0.349983
20680 1 0.380206 0.0757182 0.325069
20679 1 0.33793 0.0575677 0.349985
20678 1 0.352053 0.734142 0.32505
20677 1 0.323916 0.393963 0.325049
21248 1 0.436447 0.253083 0.374971
21247 1 0.408237 0.905771 0.374926
21242 1 0.436447 0.753084 0.374971
21241 1 0.408237 0.405771 0.374926
20697 1 0.422414 0.585916 0.350045
20696 1 0.436569 0.263984 0.325159
20695 1 0.408379 0.918962 0.325108
20691 1 0.422414 0.0859154 0.350045
20690 1 0.436569 0.763984 0.325159
20689 1 0.408379 0.418962 0.325108
20688 1 0.394226 0.240993 0.350002
20682 1 0.394226 0.740993 0.350002
21250 1 0.464701 0.604303 0.375036
21244 1 0.464701 0.104304 0.375036
20700 1 0.478858 0.282969 0.350146
20699 1 0.450629 0.933388 0.350104
20698 1 0.46477 0.610591 0.325205
20694 1 0.478858 0.782969 0.350146
20693 1 0.450629 0.433388 0.350104
20692 1 0.46477 0.110591 0.325205
21259 1 0.492976 0.958195 0.375065
21253 1 0.492976 0.458196 0.375065
20707 1 0.492974 0.958158 0.325224
20701 1 0.492974 0.458158 0.325224
21742 1 0.0428988 0.511976 0.425136
21740 3 0.014462 0.178528 0.42506
21736 1 0.0428988 0.0119764 0.425136
21734 3 0.014462 0.678527 0.42506
21192 1 0.0570144 0.183516 0.400122
21191 3 0.0285356 0.849575 0.40008
21189 3 0.00038843 0.51534 0.40008
21186 1 0.0570144 0.683516 0.400122
21185 3 0.0285356 0.349574 0.40008
21183 3 0.00038843 0.0153404 0.40008
21754 1 0.12718 0.514726 0.42503
21752 1 0.0990966 0.180265 0.425037
21751 1 0.0710156 0.846087 0.42507
21748 1 0.12718 0.014726 0.42503
21746 1 0.0990966 0.680265 0.425037
21745 1 0.0710156 0.346087 0.42507
21203 1 0.113106 0.852433 0.400056
21201 1 0.08501 0.517773 0.400046
21197 1 0.113106 0.352433 0.400056
21195 1 0.08501 0.0177729 0.400046
21764 1 0.183373 0.184253 0.425013
21763 1 0.155277 0.849402 0.425025
21758 1 0.183373 0.684253 0.425013
21757 1 0.155277 0.349402 0.425025
21213 1 0.169308 0.522447 0.400049
21207 1 0.169308 0.022447 0.400049
21204 1 0.141207 0.187342 0.400057
21198 1 0.141207 0.687342 0.400057
21775 1 0.239556 0.854681 0.424973
21769 1 0.239556 0.354681 0.424973
21766 1 0.211467 0.519324 0.424996
21760 1 0.211466 0.0193241 0.424996
21225 1 0.253584 0.529591 0.399984
21219 1 0.253584 0.0295914 0.399984
21216 1 0.225496 0.193502 0.400011
21215 1 0.197404 0.857815 0.400033
21210 1 0.225496 0.693502 0.400011
21209 1 0.197404 0.357815 0.400033
21778 1 0.295721 0.526753 0.424913
21776 1 0.26764 0.190436 0.424945
21772 1 0.295721 0.0267535 0.424913
21770 1 0.26764 0.690436 0.424945
21228 1 0.309757 0.203667 0.399919
21227 1 0.281671 0.866252 0.399952
21222 1 0.309757 0.703666 0.399919
21221 1 0.281671 0.366252 0.399952
21790 1 0.379952 0.542006 0.424797
21788 1 0.351872 0.202074 0.424838
21787 1 0.323797 0.863844 0.424877
21784 1 0.379952 0.0420062 0.424797
21782 1 0.351872 0.702074 0.424838
21781 1 0.323797 0.363844 0.424877
21239 1 0.365946 0.882062 0.399855
21237 1 0.337846 0.542122 0.399885
21233 1 0.365946 0.382062 0.399855
21231 1 0.337846 0.0421222 0.399885
21800 1 0.436197 0.23233 0.42471
21799 1 0.408049 0.88464 0.424755
21794 1 0.436197 0.732331 0.42471
21793 1 0.408049 0.384641 0.424755
21249 1 0.422232 0.569736 0.399833
21243 1 0.422232 0.0697347 0.399833
21240 1 0.394068 0.224185 0.399834
21234 1 0.394068 0.724185 0.399834
21802 1 0.464508 0.589879 0.424752
21796 1 0.464508 0.0898806 0.424752
21252 1 0.478804 0.278155 0.399949
21251 1 0.450475 0.920782 0.399877
21246 1 0.478804 0.778154 0.399949
21245 1 0.450475 0.420781 0.399877
21811 1 0.492978 0.958237 0.424843
21805 1 0.492978 0.458239 0.424843
21744 1 0.0570543 0.174483 0.450069
21743 3 0.0285356 0.841454 0.45004
21741 3 0.00038843 0.507661 0.45004
21738 1 0.0570543 0.674483 0.450069
21737 3 0.0285356 0.341453 0.45004
21735 3 0.00038843 0.00766138 0.45004
22286 3 0.014462 0.670535 0.47502
22287 3 0.00038843 0.999837 0.5
22288 1 0.0428792 0.00317695 0.475023
22289 3 0.0285356 0.33316 0.5
22290 1 0.057054 0.665441 0.499994
22292 3 0.014462 0.170535 0.47502
22293 3 0.00038843 0.499837 0.5
22294 1 0.0428792 0.503177 0.475023
22295 3 0.0285356 0.83316 0.5
22296 1 0.0570541 0.165441 0.499994
21755 1 0.113168 0.842382 0.450016
21753 1 0.0850909 0.508324 0.450037
21749 1 0.113168 0.342382 0.450016
21747 1 0.0850909 0.00832384 0.450037
22297 1 0.0710386 0.336811 0.475024
22298 1 0.0991446 0.670449 0.475005
22299 1 0.0851147 0.99874 0.499986
22300 1 0.127236 0.00418831 0.474991
22301 1 0.113211 0.332141 0.499976
22303 1 0.0710386 0.836811 0.475024
22304 1 0.0991446 0.170449 0.475005
22305 1 0.0851147 0.49874 0.499986
22306 1 0.127236 0.504188 0.474991
22307 1 0.113211 0.832141 0.499976
21765 1 0.169353 0.510957 0.449995
21759 1 0.169353 0.0109572 0.449995
21756 1 0.141257 0.176614 0.450006
21750 1 0.141257 0.676614 0.450006
22302 1 0.141312 0.665554 0.499964
22308 1 0.141312 0.165554 0.499964
22309 1 0.155335 0.338036 0.474979
22310 1 0.183434 0.671943 0.474966
22311 1 0.169416 0.998946 0.49995
22315 1 0.155335 0.838036 0.474979
22316 1 0.183434 0.171943 0.474966
22317 1 0.169416 0.498946 0.49995
21777 1 0.25363 0.514944 0.44994
21771 1 0.25363 0.0149444 0.44994
21768 1 0.225541 0.180069 0.449963
21767 1 0.197448 0.845431 0.449981
21762 1 0.225541 0.680069 0.449963
21761 1 0.197448 0.345431 0.449981
22312 1 0.211533 0.00590591 0.474951
22313 1 0.197522 0.332306 0.499936
22314 1 0.225629 0.665614 0.499921
22318 1 0.211533 0.505906 0.474951
22319 1 0.197522 0.832306 0.499936
22320 1 0.225629 0.165614 0.499921
22321 1 0.23963 0.33995 0.474933
22323 1 0.253734 0.998868 0.499905
22327 1 0.23963 0.83995 0.474933
22329 1 0.253734 0.498868 0.499905
21780 1 0.309791 0.185855 0.449883
21779 1 0.281714 0.850157 0.449913
21774 1 0.309791 0.685855 0.449883
21773 1 0.281714 0.350156 0.449913
22322 1 0.267723 0.674123 0.474912
22324 1 0.295811 0.00847521 0.474889
22325 1 0.281836 0.332046 0.499889
22326 1 0.309933 0.665116 0.499874
22328 1 0.267723 0.174122 0.474912
22330 1 0.295811 0.508475 0.474889
22331 1 0.281836 0.832046 0.499889
22332 1 0.309933 0.165116 0.499874
21791 1 0.365918 0.859826 0.449807
21789 1 0.337859 0.52227 0.449848
21785 1 0.365918 0.359827 0.449807
21783 1 0.337859 0.0222692 0.449848
22333 1 0.32389 0.34311 0.474865
22334 1 0.351956 0.678221 0.474838
22335 1 0.338023 0.99805 0.499862
22336 1 0.38 0.0141309 0.474806
22337 1 0.366101 0.330752 0.499854
22339 1 0.32389 0.84311 0.474865
22340 1 0.351956 0.178222 0.474838
22341 1 0.338023 0.49805 0.499862
22342 1 0.38 0.51413 0.474806
22343 1 0.366101 0.830753 0.499854
21801 1 0.42201 0.541872 0.449683
21795 1 0.42201 0.0418723 0.449683
21792 1 0.393966 0.199238 0.449756
21786 1 0.393966 0.699237 0.449756
22338 1 0.394159 0.662917 0.499854
22344 1 0.394159 0.162916 0.499854
22345 1 0.408002 0.3514 0.474762
22346 1 0.435964 0.691323 0.474698
22347 1 0.422193 0.993679 0.499872
22351 1 0.408002 0.851401 0.474762
22352 1 0.435964 0.191321 0.474697
22353 1 0.422193 0.493681 0.499872
21804 1 0.478607 0.262736 0.449641
21803 1 0.450122 0.892285 0.449563
21798 1 0.478608 0.762735 0.449641
21797 1 0.450122 0.392283 0.449563
22348 1 0.464014 0.04176 0.47454
22349 1 0.450272 0.320699 0.499944
22363 1 0.492978 0.958284 0.474595
22354 1 0.464014 0.54176 0.47454
22355 1 0.450272 0.820697 0.499943
22357 1 0.492978 0.458284 0.474595
22838 3 0.014462 0.662463 0.52498
22839 3 0.00038843 0.992016 0.54996
22840 1 0.0428875 0.994527 0.524967
22841 3 0.0285356 0.32487 0.54996
22842 1 0.0570769 0.656676 0.549917
22844 3 0.014462 0.162464 0.52498
22845 3 0.00038843 0.492015 0.54996
22846 1 0.0428875 0.494527 0.524967
22847 3 0.0285356 0.82487 0.54996
22848 1 0.0570769 0.156676 0.549917
22849 1 0.0710566 0.327576 0.524957
22850 1 0.099174 0.660549 0.524956
22851 1 0.0851348 0.989289 0.549932
22852 1 0.127277 0.99353 0.524948
22853 1 0.113234 0.321948 0.549931
22855 1 0.0710566 0.827576 0.524957
22856 1 0.099174 0.160549 0.524956
22857 1 0.0851348 0.489289 0.549932
22858 1 0.127277 0.49353 0.524948
22859 1 0.113234 0.821948 0.549931
22854 1 0.141347 0.654562 0.549916
22860 1 0.141347 0.154562 0.549916
22861 1 0.155389 0.326488 0.524933
22862 1 0.183503 0.659334 0.524918
22863 1 0.169469 0.987006 0.549899
22867 1 0.155389 0.826488 0.524933
22868 1 0.183503 0.159334 0.524918
22869 1 0.169469 0.487006 0.549899
22864 1 0.211618 0.992025 0.524905
22865 1 0.197593 0.319213 0.549884
22866 1 0.225719 0.651126 0.549872
22870 1 0.211618 0.492025 0.524905
22871 1 0.197593 0.819213 0.549884
22872 1 0.225719 0.151126 0.549872
22873 1 0.239734 0.324523 0.524892
22875 1 0.253844 0.982672 0.549863
22879 1 0.239734 0.824523 0.524892
22881 1 0.253844 0.482672 0.549863
22874 1 0.267849 0.656768 0.52488
22876 1 0.295963 0.988634 0.524871
22877 1 0.281968 0.313703 0.549858
22878 1 0.310092 0.643993 0.549862
22880 1 0.267849 0.156768 0.52488
22882 1 0.295963 0.488634 0.524871
22883 1 0.281968 0.813704 0.549858
22884 1 0.310092 0.143993 0.549862
22885 1 0.324073 0.319954 0.524869
22886 1 0.35218 0.650421 0.524876
22887 1 0.338213 0.973189 0.549877
22888 1 0.380283 0.979358 0.524901
22889 1 0.36633 0.300668 0.549912
22891 1 0.324073 0.819954 0.524869
22892 1 0.35218 0.15042 0.524876
22893 1 0.338213 0.473189 0.549877
22894 1 0.380283 0.479359 0.524901
22895 1 0.36633 0.800668 0.549912
22890 1 0.394444 0.625285 0.549986
22896 1 0.394444 0.125286 0.549986
22897 1 0.408383 0.305356 0.524964
22898 1 0.436504 0.625125 0.525099
22899 1 0.422556 0.945052 0.550127
22903 1 0.408383 0.805355 0.524964
22904 1 0.436504 0.125127 0.525099
22905 1 0.422556 0.445051 0.550127
22900 1 0.464642 0.929441 0.525457
22901 1 0.450661 0.256598 0.550417
22902 1 0.478817 0.558867 0.550782
22906 1 0.464642 0.429437 0.525457
22907 1 0.450661 0.756599 0.550417
22908 1 0.478817 0.0588691 0.550781
22909 1 0.492976 0.208322 0.525962
22915 1 0.492977 0.708327 0.525962
22356 1 0.478541 0.124981 0.500224
22350 1 0.478541 0.62498 0.500224
23390 3 0.014462 0.654478 0.57494
23391 3 0.00038843 0.984346 0.59992
23392 1 0.0429161 0.986252 0.574853
23393 3 0.0285356 0.31676 0.59992
23394 1 0.0570406 0.648474 0.599862
23396 3 0.014462 0.154478 0.57494
23397 3 0.00038843 0.484345 0.59992
23398 1 0.0429161 0.486252 0.574853
23399 3 0.0285356 0.81676 0.59992
23400 1 0.0570406 0.148474 0.599862
23942 3 0.014462 0.646731 0.6249
23944 3 0.0426091 0.97888 0.6249
23948 3 0.014462 0.146732 0.6249
23950 3 0.0426091 0.478879 0.6249
23401 1 0.0710592 0.318671 0.574907
23402 1 0.0991706 0.650907 0.574917
23403 1 0.0850744 0.980307 0.599917
23404 1 0.127286 0.983174 0.574899
23405 1 0.113212 0.312309 0.599881
23407 1 0.0710592 0.818671 0.574907
23408 1 0.0991706 0.150907 0.574917
23409 1 0.0850744 0.480307 0.599917
23410 1 0.127286 0.483174 0.574899
23411 1 0.113212 0.812309 0.599881
23953 1 0.070956 0.310415 0.624906
23954 1 0.0991183 0.641977 0.624861
23956 1 0.127286 0.973541 0.624821
23959 1 0.070956 0.810415 0.624906
23960 1 0.0991183 0.141977 0.624861
23962 1 0.127286 0.473541 0.624821
23406 1 0.141355 0.644179 0.599852
23412 1 0.141355 0.144179 0.599852
23413 1 0.155419 0.315299 0.574877
23414 1 0.183553 0.647143 0.574859
23415 1 0.169499 0.975746 0.599831
23419 1 0.155419 0.815299 0.574877
23420 1 0.183553 0.147143 0.574859
23421 1 0.169499 0.475746 0.599831
23965 1 0.155439 0.304925 0.624798
23966 1 0.183584 0.635933 0.624786
23971 1 0.155439 0.804925 0.624798
23972 1 0.183584 0.135933 0.624786
23416 1 0.211687 0.97863 0.574848
23417 1 0.19764 0.306939 0.599819
23418 1 0.225778 0.637665 0.599813
23422 1 0.211687 0.47863 0.574848
23423 1 0.19764 0.806939 0.599819
23424 1 0.225778 0.137665 0.599813
23425 1 0.239819 0.309682 0.574841
23427 1 0.253913 0.967819 0.599814
23431 1 0.239819 0.809683 0.574841
23433 1 0.253913 0.467819 0.599814
23968 1 0.211724 0.966473 0.624782
23974 1 0.211724 0.466473 0.624782
23977 1 0.239861 0.296446 0.624785
23983 1 0.239861 0.796446 0.624785
23426 1 0.267951 0.640173 0.574839
23428 1 0.29608 0.969879 0.574845
23429 1 0.282046 0.297233 0.599822
23430 1 0.310175 0.62562 0.599843
23432 1 0.267951 0.140173 0.574839
23434 1 0.29608 0.469879 0.574845
23435 1 0.282046 0.797233 0.599822
23436 1 0.310175 0.12562 0.599843
23978 1 0.267994 0.625735 0.624795
23980 1 0.296123 0.954132 0.624816
23984 1 0.267994 0.125735 0.624795
23986 1 0.296123 0.454132 0.624816
23437 1 0.324207 0.298468 0.574864
23438 1 0.35233 0.62546 0.574903
23439 1 0.338298 0.952616 0.599882
23440 1 0.380447 0.950089 0.574975
23441 1 0.366415 0.277734 0.599949
23443 1 0.324207 0.798467 0.574864
23444 1 0.35233 0.12546 0.574903
23445 1 0.338298 0.452616 0.599882
23446 1 0.380447 0.450088 0.574975
23447 1 0.366415 0.777735 0.599949
23989 1 0.324247 0.281359 0.624854
23990 1 0.352364 0.607098 0.624914
23992 1 0.380473 0.930986 0.625005
23995 1 0.324247 0.781359 0.624854
23996 1 0.352364 0.107097 0.624914
23998 1 0.380473 0.430987 0.625005
23442 1 0.394523 0.600354 0.600055
23448 1 0.394523 0.100354 0.600055
23449 1 0.408556 0.271235 0.575099
23450 1 0.436658 0.587536 0.575309
23451 1 0.422626 0.91988 0.600213
23455 1 0.408556 0.771237 0.575099
23456 1 0.436658 0.0875334 0.575309
23457 1 0.422626 0.41988 0.600213
24001 1 0.408578 0.252751 0.62513
24002 1 0.43669 0.572444 0.625277
24007 1 0.408578 0.75275 0.62513
24008 1 0.43669 0.0724454 0.625277
23452 1 0.46478 0.89893 0.575569
23453 1 0.45074 0.236369 0.600402
23454 1 0.478889 0.551144 0.600531
23458 1 0.46478 0.398935 0.575568
23459 1 0.45074 0.73637 0.600402
23460 1 0.478889 0.0511414 0.600531
24004 1 0.464821 0.890717 0.625401
24010 1 0.464821 0.390715 0.625402
23461 1 0.492974 0.208361 0.575675
23467 1 0.492974 0.708355 0.575675
24013 1 0.492971 0.208408 0.62545
24019 1 0.492971 0.708411 0.62545
23945 3 0.0285356 0.308983 0.64988
23946 1 0.0568024 0.640769 0.649952
23951 3 0.0285356 0.808984 0.64988
23952 1 0.0568024 0.140769 0.649952
24496 3 0.0426091 0.971126 0.67486
24502 3 0.0426091 0.471125 0.67486
23955 1 0.0851194 0.9717 0.649833
23957 1 0.113246 0.303189 0.649789
23961 1 0.0851194 0.4717 0.649833
23963 1 0.113246 0.803189 0.649789
24505 1 0.0711138 0.30151 0.674803
24506 1 0.0992214 0.633161 0.674772
24508 1 0.127335 0.964505 0.674739
24511 1 0.0711138 0.80151 0.674803
24512 1 0.0992214 0.133161 0.674772
24514 1 0.127335 0.464505 0.674739
23958 1 0.141382 0.634505 0.649765
23964 1 0.141382 0.134505 0.649765
23967 1 0.169524 0.965476 0.649752
23973 1 0.169524 0.465476 0.649752
24517 1 0.155459 0.295501 0.674719
24518 1 0.183596 0.62599 0.674713
24523 1 0.155459 0.795501 0.674719
24524 1 0.183596 0.12599 0.674713
23969 1 0.197663 0.295946 0.649749
23970 1 0.225799 0.625858 0.649753
23975 1 0.197663 0.795946 0.649749
23976 1 0.225799 0.125858 0.649753
23979 1 0.253931 0.955133 0.649764
23985 1 0.253931 0.455133 0.649764
24520 1 0.211729 0.955913 0.67472
24526 1 0.211729 0.455913 0.67472
24529 1 0.23986 0.285242 0.674732
24535 1 0.23986 0.785242 0.674732
23981 1 0.28206 0.283641 0.649786
23982 1 0.310183 0.611179 0.649821
23987 1 0.28206 0.783641 0.649786
23988 1 0.310183 0.111179 0.649821
24530 1 0.267989 0.613905 0.674752
24532 1 0.296112 0.941763 0.674784
24536 1 0.267989 0.113905 0.674752
24538 1 0.296112 0.441763 0.674784
23991 1 0.338301 0.93753 0.649875
23993 1 0.366413 0.262469 0.649953
23997 1 0.338301 0.43753 0.649875
23999 1 0.366413 0.762469 0.649953
24541 1 0.324232 0.268661 0.674832
24542 1 0.352346 0.594456 0.674899
24544 1 0.380458 0.919064 0.674984
24547 1 0.324232 0.768661 0.674832
24548 1 0.352346 0.0944567 0.674899
24550 1 0.380458 0.419063 0.674984
24560 1 0.436692 0.0650014 0.675181
24559 1 0.408571 0.742511 0.675083
23994 1 0.394521 0.585851 0.650055
24000 1 0.394521 0.0858512 0.650055