ITEM: TIMESTEP
41
ITEM: NUMBER OF ATOMS
2348
ITEM: BOX BOUNDS ss pp ss
-4.0972079223999998e+01 4.1846228795000002e+01
-4.1208122699999999e-01 4.5329187729999996e+00
-4.1081038976000002e+01 4.1753946576000004e+01
ITEM: ATOMS id type xs ys zs
16806 3 0.310007 0.761941 0.0247612
16812 3 0.310007 0.261941 0.0247612
17354 3 0.267786 0.754276 0.0491324
17356 3 0.295933 0.0916943 0.0491324
17360 3 0.267786 0.254276 0.0491324
17362 3 0.295933 0.591694 0.0491324
16815 3 0.338154 0.0994759 0.0247612
16817 3 0.366301 0.437162 0.0247612
16821 3 0.338154 0.599475 0.0247612
16823 3 0.366301 0.937163 0.0247612
17365 3 0.32408 0.429307 0.0491324
17366 3 0.352228 0.767104 0.0491324
17368 1 0.3805 0.105113 0.0491951
17371 3 0.32408 0.929308 0.0491324
17372 3 0.352228 0.267105 0.0491324
17374 1 0.3805 0.605113 0.0491951
16818 3 0.394448 0.774984 0.0247612
16824 3 0.394448 0.274984 0.0247612
16825 3 0.408522 0.444631 0.00038994
16826 3 0.436669 0.782389 0.00038994
16827 3 0.422595 0.112915 0.0247612
16831 3 0.408522 0.944631 0.00038994
16832 3 0.436669 0.282389 0.00038994
16833 3 0.422595 0.612915 0.0247612
17377 1 0.408662 0.444322 0.0494615
17378 1 0.436796 0.781924 0.0494813
17383 1 0.408662 0.944322 0.0494615
17384 1 0.436796 0.281924 0.0494813
16828 3 0.464816 0.120205 0.00038994
16829 3 0.450743 0.450928 0.0247612
16830 3 0.47889 0.788994 0.0247612
16834 3 0.464816 0.620204 0.00038994
16835 3 0.450743 0.950929 0.0247612
16836 3 0.47889 0.288995 0.0247612
17380 1 0.464856 0.119783 0.0493514
17386 1 0.464856 0.619783 0.0493514
16837 3 0.492963 0.458051 0.00038994
16843 3 0.492963 0.958051 0.00038994
17389 1 0.492961 0.458048 0.0493369
17395 1 0.492961 0.958048 0.0493369
17894 3 0.183345 0.73885 0.0978748
17895 3 0.169271 0.0679907 0.122246
17900 3 0.183345 0.238851 0.0978748
17901 3 0.169271 0.56799 0.122246
17346 3 0.225565 0.74653 0.0735036
17352 3 0.225565 0.246531 0.0735036
17355 3 0.253713 0.0837493 0.0735036
17361 3 0.253713 0.583749 0.0735036
17896 3 0.211492 0.0757961 0.0978748
17897 3 0.197418 0.404862 0.122246
17898 1 0.225775 0.742624 0.122463
17902 3 0.211492 0.575796 0.0978748
17903 3 0.197418 0.904862 0.122246
17904 1 0.225775 0.242624 0.122463
17905 3 0.239639 0.41299 0.0978748
17907 1 0.253921 0.0802212 0.122561
17911 3 0.239639 0.912991 0.0978748
17913 1 0.253921 0.580221 0.122561
17357 3 0.28186 0.421196 0.0735036
17358 1 0.310088 0.759612 0.0738054
17363 3 0.28186 0.921197 0.0735036
17364 1 0.310088 0.259612 0.0738054
17906 1 0.267919 0.751358 0.0981137
17908 1 0.296098 0.089016 0.0982262
17909 1 0.282001 0.417925 0.122504
17910 1 0.31014 0.756056 0.122505
17912 1 0.267919 0.251358 0.0981137
17914 1 0.296098 0.589016 0.0982262
17915 1 0.282001 0.917925 0.122504
17916 1 0.31014 0.256056 0.122505
17367 1 0.338288 0.097277 0.0738338
17369 1 0.366413 0.435242 0.0736623
17373 1 0.338288 0.597277 0.0738338
17375 1 0.366413 0.935242 0.0736623
17917 1 0.324209 0.426871 0.0981387
17918 1 0.352354 0.765119 0.0980699
17919 1 0.338273 0.0942781 0.122464
17920 1 0.380461 0.103362 0.0980562
17921 1 0.366394 0.432754 0.122439
17923 1 0.324209 0.926871 0.0981387
17924 1 0.352354 0.265119 0.0980699
17925 1 0.338273 0.594278 0.122464
17926 1 0.380461 0.603362 0.0980562
17927 1 0.366394 0.932754 0.122439
17370 1 0.394566 0.773888 0.073761
17376 1 0.394566 0.273888 0.073761
17379 1 0.422702 0.112431 0.0737991
17385 1 0.422702 0.612431 0.0737991
17922 1 0.394513 0.771445 0.122452
17928 1 0.394513 0.271445 0.122452
17929 1 0.408599 0.442114 0.0981214
17930 1 0.43674 0.780865 0.0981379
17931 1 0.422648 0.110474 0.122481
17935 1 0.408599 0.942114 0.0981214
17936 1 0.43674 0.280865 0.0981379
17937 1 0.422648 0.610474 0.122481
17381 1 0.45082 0.450686 0.0737509
17382 1 0.478912 0.788875 0.0736995
17387 1 0.45082 0.950686 0.0737509
17388 1 0.478912 0.288875 0.0736995
17932 1 0.464856 0.119497 0.0981122
17933 1 0.45078 0.449555 0.122487
17934 1 0.4789 0.788574 0.12248
17938 1 0.464856 0.619497 0.0981122
17939 1 0.45078 0.949555 0.122487
17940 1 0.4789 0.288574 0.12248
17941 1 0.492959 0.458062 0.0980947
17947 1 0.492959 0.958062 0.0980947
18437 3 0.112977 0.389459 0.170988
18443 3 0.112977 0.88946 0.170988
18438 3 0.141124 0.725817 0.170988
18444 3 0.141124 0.225818 0.170988
18445 3 0.155198 0.396973 0.146617
18446 3 0.183345 0.73374 0.146617
18447 1 0.169236 0.062135 0.171109
18451 3 0.155198 0.896973 0.146617
18452 3 0.183345 0.23374 0.146617
18453 1 0.169236 0.562135 0.171109
18448 1 0.211693 0.0711936 0.146888
18449 1 0.197468 0.399614 0.171144
18450 1 0.225626 0.737223 0.171169
18454 1 0.211693 0.571194 0.146888
18455 1 0.197468 0.899614 0.171144
18456 1 0.225626 0.237223 0.171169
18457 1 0.239777 0.408774 0.146845
18459 1 0.25379 0.0749189 0.171178
18463 1 0.239777 0.908774 0.146845
18465 1 0.25379 0.574919 0.171178
18458 1 0.267915 0.746666 0.146856
18460 1 0.296046 0.0846543 0.146842
18461 1 0.281938 0.412979 0.171176
18462 1 0.31008 0.751307 0.171168
18464 1 0.267915 0.246666 0.146856
18466 1 0.296046 0.584654 0.146842
18467 1 0.281938 0.912979 0.171176
18468 1 0.31008 0.251307 0.171168
18469 1 0.324183 0.423041 0.146825
18470 1 0.352313 0.761615 0.146806
18471 1 0.338221 0.0899956 0.171164
18472 1 0.380438 0.100465 0.146809
18473 1 0.366354 0.429018 0.171166
18475 1 0.324183 0.923041 0.146825
18476 1 0.352313 0.261615 0.146806
18477 1 0.338221 0.589996 0.171164
18478 1 0.380438 0.600465 0.146809
18479 1 0.366354 0.929018 0.171166
18474 1 0.394486 0.768392 0.171179
18480 1 0.394486 0.268392 0.171179
18481 1 0.408567 0.439639 0.146828
18482 1 0.436701 0.779069 0.146847
18483 1 0.422621 0.108099 0.171198
18487 1 0.408567 0.939639 0.146828
18488 1 0.436701 0.279069 0.146847
18489 1 0.422621 0.608099 0.171198
18484 1 0.464831 0.118579 0.146853
18485 1 0.450756 0.448034 0.171214
18486 1 0.47889 0.788068 0.17122
18490 1 0.464831 0.618579 0.146853
18491 1 0.450756 0.948034 0.171214
18492 1 0.47889 0.288068 0.17122
18493 1 0.492956 0.45808 0.146853
18499 1 0.492956 0.95808 0.146853
18986 3 0.0989034 0.718359 0.19536
18987 3 0.0848298 0.0471943 0.219731
18988 3 0.127051 0.0545454 0.19536
18989 3 0.112977 0.383184 0.219731
18992 3 0.0989034 0.218359 0.19536
18993 3 0.0848298 0.547194 0.219731
18994 3 0.127051 0.554545 0.19536
18995 3 0.112977 0.883185 0.219731
19537 3 0.0707563 0.375993 0.244102
19538 3 0.0989034 0.711766 0.244102
19540 1 0.127184 0.047907 0.244231
19543 3 0.0707563 0.875994 0.244102
19544 3 0.0989034 0.211767 0.244102
19546 1 0.127184 0.547907 0.244231
18990 1 0.14133 0.719798 0.219994
18996 1 0.14133 0.219798 0.219994
18997 1 0.155382 0.391825 0.19562
18998 1 0.183455 0.728218 0.195551
18999 1 0.169405 0.0566239 0.219924
19003 1 0.155382 0.891825 0.19562
19004 1 0.183455 0.228218 0.195551
19005 1 0.169405 0.556624 0.219924
19549 1 0.155292 0.384632 0.244251
19550 1 0.18342 0.721383 0.244229
19555 1 0.155292 0.884632 0.244251
19556 1 0.18342 0.221383 0.244229
19000 1 0.211537 0.0652313 0.195483
19001 1 0.197498 0.39342 0.219861
19002 1 0.225601 0.730643 0.219827
19006 1 0.211537 0.565231 0.195483
19007 1 0.197498 0.89342 0.219861
19008 1 0.225601 0.230643 0.219827
19009 1 0.239682 0.402901 0.195494
19011 1 0.25373 0.0684051 0.219825
19015 1 0.239682 0.902901 0.195494
19017 1 0.25373 0.568405 0.219825
19552 1 0.211528 0.0583796 0.244186
19558 1 0.211528 0.55838 0.244186
19561 1 0.239644 0.395802 0.244165
19567 1 0.239644 0.895802 0.244165
19010 1 0.267826 0.740846 0.195498
19012 1 0.295975 0.0791673 0.195502
19013 1 0.28187 0.406626 0.21983
19014 1 0.310014 0.745317 0.219835
19016 1 0.267826 0.240846 0.195498
19018 1 0.295975 0.579167 0.195502
19019 1 0.28187 0.906626 0.21983
19020 1 0.310014 0.245317 0.219835
19562 1 0.267773 0.73378 0.24416
19564 1 0.295909 0.0723128 0.244163
19568 1 0.267773 0.23378 0.24416
19570 1 0.295909 0.572313 0.244163
19021 1 0.324119 0.417894 0.195504
19022 1 0.35226 0.757042 0.195511
19023 1 0.338158 0.0845055 0.219844
19024 1 0.380399 0.0966085 0.195525
19025 1 0.366303 0.424207 0.21986
19027 1 0.324119 0.917894 0.195504
19028 1 0.35226 0.257042 0.195511
19029 1 0.338158 0.584506 0.219844
19030 1 0.380399 0.596608 0.195525
19031 1 0.366303 0.924207 0.21986
19573 1 0.324052 0.411428 0.244171
19574 1 0.352198 0.751157 0.244187
19576 1 0.380348 0.0915233 0.244211
19579 1 0.324052 0.911428 0.244171
19580 1 0.352198 0.251157 0.244187
19582 1 0.380348 0.591523 0.244211
19026 1 0.394448 0.764419 0.219883
19032 1 0.394448 0.264419 0.219883
19033 1 0.408538 0.436585 0.195545
19034 1 0.436678 0.776909 0.195565
19035 1 0.422593 0.105104 0.219908
19039 1 0.408538 0.936585 0.195545
19040 1 0.436678 0.276909 0.195565
19041 1 0.422593 0.605104 0.219908
19585 1 0.408499 0.432509 0.244241
19586 1 0.436651 0.774043 0.244269
19591 1 0.408499 0.932509 0.244241
19592 1 0.436651 0.274043 0.244269
19036 1 0.464817 0.117457 0.195579
19037 1 0.450738 0.446159 0.219929
19038 1 0.478882 0.787443 0.21994
19042 1 0.464817 0.617457 0.195579
19043 1 0.450738 0.946159 0.219929
19044 1 0.478882 0.287443 0.21994
19588 1 0.464802 0.115983 0.24429
19594 1 0.464802 0.615983 0.24429
19045 1 0.492955 0.458113 0.195583
19051 1 0.492955 0.958113 0.195583
19597 1 0.492954 0.458133 0.244296
19603 1 0.492954 0.958133 0.244296
19530 3 0.0566827 0.704787 0.268473
19536 3 0.0566827 0.204788 0.268473
20080 3 0.0426091 0.0336039 0.292845
20086 3 0.0426091 0.533603 0.292845
19539 3 0.0848298 0.0403234 0.268473
19541 1 0.113109 0.376194 0.268565
19545 3 0.0848298 0.540323 0.268473
19547 1 0.113109 0.876194 0.268565
20089 3 0.0707563 0.368889 0.292845
20090 1 0.0990472 0.704517 0.292917
20092 1 0.127119 0.0403884 0.292888
20095 3 0.0707563 0.86889 0.292845
20096 1 0.0990472 0.204517 0.292917
20098 1 0.127119 0.540388 0.292888
19542 1 0.141188 0.71243 0.268554
19548 1 0.141188 0.21243 0.268554
19551 1 0.169321 0.0490848 0.268562
19557 1 0.169321 0.549085 0.268562
20101 1 0.155237 0.376638 0.29289
20102 1 0.183355 0.713246 0.292882
20107 1 0.155237 0.876638 0.29289
20108 1 0.183355 0.213246 0.292882
19553 1 0.197441 0.385919 0.268539
19554 1 0.225559 0.723073 0.268515
19559 1 0.197441 0.885919 0.268539
19560 1 0.225559 0.223073 0.268515
19563 1 0.253679 0.0607275 0.268499
19569 1 0.253679 0.560727 0.268499
20119 1 0.239589 0.887492 0.292845
20104 1 0.211473 0.0501607 0.292865
20110 1 0.211473 0.550161 0.292865
20113 1 0.239589 0.387492 0.292845
19565 1 0.281807 0.398973 0.268493
19566 1 0.309944 0.737873 0.268496
19571 1 0.281807 0.898973 0.268493
19572 1 0.309944 0.237873 0.268496
20122 1 0.295837 0.56393 0.292825
20120 1 0.267709 0.225381 0.292831
20116 1 0.295837 0.0639299 0.292825
20114 1 0.267709 0.725381 0.292831
20134 1 0.380276 0.584605 0.292873
20132 1 0.35212 0.243437 0.292844
20131 1 0.323974 0.903245 0.292829
20128 1 0.380276 0.0846055 0.292873
20126 1 0.35212 0.743437 0.292844
20125 1 0.323974 0.403245 0.292829
19575 1 0.338088 0.077481 0.268508
19577 1 0.366238 0.417857 0.268531
19581 1 0.338088 0.577481 0.268508
19583 1 0.366238 0.917857 0.268531
20144 1 0.436609 0.269936 0.292951
20143 1 0.40844 0.926791 0.292911
20138 1 0.436609 0.769937 0.292951
20137 1 0.40844 0.426791 0.292911
19578 1 0.394393 0.759029 0.268562
19584 1 0.394393 0.259029 0.268562
19587 1 0.422552 0.100966 0.268597
19593 1 0.422552 0.600966 0.268597
20146 1 0.464781 0.613838 0.292981
20140 1 0.464781 0.113838 0.292981
19589 1 0.450713 0.443551 0.268628
19590 1 0.478873 0.786564 0.268645
19595 1 0.450713 0.943551 0.268628
19596 1 0.478873 0.286564 0.268645
20149 1 0.492954 0.458158 0.292991
20155 1 0.492954 0.958158 0.292991
20640 1 0.0569916 0.189115 0.366002
20639 3 0.0285356 0.854976 0.365958
20638 3 0.0426091 0.526185 0.341587
20636 3 0.014462 0.191418 0.341587
20634 1 0.0569916 0.689115 0.366002
20633 3 0.0285356 0.354975 0.365958
20632 3 0.0426091 0.0261858 0.341587
20630 3 0.014462 0.691417 0.341587
20081 3 0.0285356 0.362471 0.317216
20082 3 0.0566827 0.6975 0.317216
20087 3 0.0285356 0.862472 0.317216
20088 3 0.0566827 0.1975 0.317216
20651 1 0.113127 0.859528 0.365966
20650 1 0.127152 0.531795 0.341592
20649 1 0.0850622 0.524295 0.365985
20648 1 0.0990763 0.196195 0.341601
20647 1 0.0710841 0.860996 0.341642
20645 1 0.113127 0.359528 0.365966
20644 1 0.127152 0.031795 0.341592
20643 1 0.0850622 0.024295 0.365985
20642 1 0.0990763 0.696195 0.341601
20641 1 0.0710841 0.360996 0.341642
20091 1 0.0850055 0.032827 0.317272
20093 1 0.113076 0.368358 0.317237
20097 1 0.0850055 0.532827 0.317272
20099 1 0.113076 0.868358 0.317237
20661 1 0.169285 0.530901 0.365935
20660 1 0.183333 0.203971 0.341571
20659 1 0.155236 0.86772 0.341582
20655 1 0.169285 0.0309007 0.365935
20654 1 0.183333 0.703971 0.341571
20653 1 0.155236 0.36772 0.341582
20652 1 0.141197 0.195048 0.365949
20646 1 0.141197 0.695048 0.365949
20094 1 0.14118 0.704224 0.317233
20100 1 0.14118 0.204224 0.317233
20103 1 0.169285 0.0404793 0.317227
20109 1 0.169285 0.540479 0.317227
20673 1 0.253567 0.540715 0.365871
20671 1 0.239537 0.877644 0.341532
20667 1 0.253567 0.0407149 0.365871
20665 1 0.239537 0.377644 0.341532
20664 1 0.225471 0.203654 0.365895
20663 1 0.197376 0.867081 0.365917
20662 1 0.211434 0.540588 0.341553
20658 1 0.225471 0.703654 0.365895
20657 1 0.197376 0.367081 0.365917
20656 1 0.211434 0.0405879 0.341553
20121 1 0.253618 0.551583 0.317177
20115 1 0.253618 0.0515828 0.317177
20105 1 0.197396 0.377094 0.317215
20106 1 0.225506 0.71409 0.317196
20111 1 0.197396 0.877094 0.317215
20112 1 0.225506 0.21409 0.317196
20676 1 0.309775 0.216898 0.365827
20675 1 0.281668 0.878401 0.365847
20674 1 0.295757 0.55358 0.341494
20672 1 0.267644 0.21526 0.341511
20670 1 0.309775 0.716898 0.365827
20669 1 0.281668 0.378401 0.365847
20668 1 0.295757 0.0535804 0.341494
20666 1 0.267644 0.71526 0.341511
20124 1 0.309861 0.22857 0.317156
20123 1 0.281735 0.889697 0.317163
20118 1 0.309861 0.72857 0.317156
20117 1 0.281735 0.389697 0.317163
20687 1 0.366031 0.897437 0.365814
20686 1 0.380173 0.574903 0.341509
20685 1 0.337894 0.556466 0.365814
20684 1 0.352018 0.233146 0.341489
20683 1 0.323881 0.892796 0.341485
20681 1 0.366031 0.397437 0.365814
20680 1 0.380173 0.0749029 0.341509
20679 1 0.337894 0.056466 0.365814
20678 1 0.352018 0.733146 0.341489
20677 1 0.323881 0.392796 0.341485
20135 1 0.366149 0.909266 0.317179
20133 1 0.337999 0.568365 0.31716
20129 1 0.366149 0.409266 0.317179
20127 1 0.337999 0.0683654 0.31716
20697 1 0.422383 0.585374 0.365874
20696 1 0.436541 0.263561 0.341597
20695 1 0.408349 0.918334 0.341547
20691 1 0.422383 0.0853741 0.365874
20690 1 0.436541 0.763562 0.341597
20689 1 0.408349 0.418334 0.341547
20688 1 0.394193 0.240252 0.365833
20682 1 0.394193 0.740252 0.365833
20145 1 0.422489 0.594914 0.317257
20139 1 0.422489 0.0949135 0.317257
20136 1 0.394313 0.251426 0.317213
20130 1 0.394313 0.751426 0.317213
20700 1 0.478833 0.28288 0.365969
20699 1 0.450601 0.933067 0.36593
20698 1 0.464744 0.61039 0.341641
20694 1 0.478833 0.782879 0.365969
20693 1 0.450601 0.433067 0.36593
20692 1 0.464744 0.11039 0.341641
20148 1 0.478859 0.285215 0.317325
20147 1 0.450672 0.939625 0.317299
20142 1 0.478859 0.785214 0.317325
20141 1 0.450672 0.439625 0.317299
20707 1 0.492953 0.958182 0.341657
20701 1 0.492953 0.458182 0.341657
21742 1 0.0428929 0.509498 0.439129
21740 3 0.014462 0.176048 0.439072
21736 1 0.0428929 0.00949815 0.439129
21734 3 0.014462 0.676048 0.439072
21192 1 0.0569816 0.181174 0.414692
21191 3 0.0285356 0.847066 0.414701
21190 1 0.0426509 0.519329 0.39026
21189 3 0.00038843 0.512964 0.414701
21188 3 0.014462 0.183896 0.390329
21186 1 0.0569816 0.681174 0.414692
21185 3 0.0285356 0.347065 0.414701
21184 1 0.042651 0.0193287 0.39026
21183 3 0.00038843 0.0129648 0.414701
21182 3 0.014462 0.683895 0.390329
21754 1 0.127176 0.512554 0.439053
21752 1 0.0990909 0.177998 0.439059
21751 1 0.0709989 0.84366 0.439064
21748 1 0.127176 0.0125539 0.439053
21746 1 0.0990909 0.677998 0.439059
21745 1 0.0709989 0.34366 0.439064
21203 1 0.113116 0.850219 0.414692
21202 1 0.127156 0.522567 0.390323
21201 1 0.0850203 0.515524 0.414691
21200 1 0.0990715 0.187521 0.390338
21199 1 0.0709823 0.852836 0.390337
21197 1 0.113116 0.350219 0.414692
21196 1 0.127156 0.0225667 0.390323
21195 1 0.0850203 0.0155242 0.414691
21194 1 0.0990715 0.687521 0.390338
21193 1 0.0709823 0.352836 0.390337
21764 1 0.183355 0.182275 0.439023
21763 1 0.155267 0.847315 0.439041
21758 1 0.183355 0.682275 0.439023
21757 1 0.155267 0.347315 0.439041
21213 1 0.169295 0.520392 0.414664
21212 1 0.183331 0.193661 0.390288
21211 1 0.155244 0.857962 0.390307
21207 1 0.169295 0.0203917 0.414664
21206 1 0.183331 0.693661 0.390288
21205 1 0.155244 0.357962 0.390307
21204 1 0.141206 0.185181 0.414681
21198 1 0.141206 0.685181 0.414681
21775 1 0.239525 0.852986 0.438976
21769 1 0.239525 0.352986 0.438976
21766 1 0.211441 0.517479 0.439001
21760 1 0.211441 0.017479 0.439001
21225 1 0.253552 0.527976 0.414592
21223 1 0.239509 0.866168 0.390241
21219 1 0.253552 0.0279762 0.414592
21217 1 0.239509 0.366168 0.390241
21216 1 0.225468 0.191722 0.414619
21215 1 0.197382 0.855888 0.414643
21214 1 0.21142 0.529706 0.390267
21210 1 0.225468 0.691722 0.414619
21209 1 0.197382 0.355888 0.414643
21208 1 0.21142 0.0297055 0.390267
21778 1 0.295684 0.525368 0.438916
21776 1 0.267606 0.188897 0.438948
21772 1 0.295684 0.0253678 0.438916
21770 1 0.267606 0.688897 0.438948
21228 1 0.30972 0.202362 0.41453
21227 1 0.281636 0.864792 0.414562
21226 1 0.295692 0.540845 0.390186
21224 1 0.267599 0.203157 0.390214
21222 1 0.30972 0.702362 0.41453
21221 1 0.281636 0.364792 0.414562
21220 1 0.295692 0.0408449 0.390186
21218 1 0.267599 0.703157 0.390214
21790 1 0.379913 0.541154 0.4388
21788 1 0.351833 0.201024 0.438843
21787 1 0.323759 0.862619 0.438881
21784 1 0.379913 0.0411543 0.4388
21782 1 0.351833 0.701025 0.438843
21781 1 0.323759 0.362619 0.438881
21239 1 0.365908 0.881109 0.414468
21238 1 0.380036 0.561003 0.390133
21237 1 0.337809 0.540985 0.414498
21236 1 0.351903 0.219357 0.390141
21235 1 0.323791 0.879463 0.39016
21233 1 0.365908 0.381108 0.414468
21232 1 0.380036 0.0610038 0.390133
21231 1 0.337809 0.0409852 0.414498
21230 1 0.351903 0.719357 0.390141
21229 1 0.323791 0.379464 0.39016
21800 1 0.436162 0.231881 0.43871
21799 1 0.408012 0.883989 0.438757
21794 1 0.436162 0.731882 0.43871
21793 1 0.408012 0.38399 0.438757
21249 1 0.422198 0.569183 0.414443
21248 1 0.436416 0.252644 0.390189
21247 1 0.408203 0.905114 0.390146
21243 1 0.422198 0.0691815 0.414443
21242 1 0.436416 0.752645 0.390189
21241 1 0.408203 0.405115 0.390146
21240 1 0.394031 0.223426 0.414447
21234 1 0.394031 0.723425 0.414447
21802 1 0.464476 0.589645 0.438747
21796 1 0.464476 0.0896467 0.438747
21252 1 0.478775 0.278055 0.41455
21251 1 0.450444 0.92045 0.414483
21250 1 0.464673 0.604094 0.39025
21246 1 0.478775 0.778053 0.41455
21245 1 0.450444 0.420449 0.414483
21244 1 0.464673 0.104095 0.39025
21811 1 0.492949 0.958254 0.438831
21805 1 0.492949 0.458256 0.438831
21259 1 0.492951 0.958216 0.390275
21253 1 0.492951 0.458217 0.390275
21744 1 0.0570473 0.172025 0.46346
21743 3 0.0285356 0.838873 0.463443
21741 3 0.00038843 0.505225 0.463443
21738 1 0.0570473 0.672025 0.46346
21737 3 0.0285356 0.338872 0.463443
21735 3 0.00038843 0.00522508 0.463443
22286 3 0.014462 0.668013 0.487814
22288 1 0.0428764 0.000687923 0.487811
22292 3 0.014462 0.168014 0.487814
22294 1 0.0428764 0.500688 0.487811
21755 1 0.113156 0.840143 0.463426
21753 1 0.0850791 0.505953 0.463435
21749 1 0.113156 0.340143 0.463426
21747 1 0.0850791 0.00595341 0.463435
22297 1 0.071034 0.334447 0.48781
22298 1 0.0991315 0.668152 0.487803
22300 1 0.127218 0.00200687 0.487794
22303 1 0.071034 0.834447 0.48781
22304 1 0.0991315 0.168152 0.487803
22306 1 0.127218 0.502007 0.487794
21765 1 0.169334 0.508946 0.463403
21759 1 0.169334 0.00894637 0.463403
21756 1 0.141244 0.174493 0.463417
21750 1 0.141244 0.674493 0.463417
22309 1 0.155313 0.335986 0.487782
22310 1 0.183409 0.670014 0.487765
22315 1 0.155313 0.835986 0.487782
22316 1 0.183409 0.170014 0.487765
21777 1 0.253596 0.513335 0.463337
21771 1 0.253596 0.0133347 0.463337
21768 1 0.225511 0.178317 0.463362
21767 1 0.197424 0.843543 0.463384
21762 1 0.225511 0.678317 0.463362
21761 1 0.197424 0.343543 0.463384
22312 1 0.211503 0.00410594 0.487746
22318 1 0.211503 0.504106 0.487746
22321 1 0.239596 0.338285 0.487725
22327 1 0.239596 0.838285 0.487725
21780 1 0.309752 0.184549 0.463279
21779 1 0.281677 0.848696 0.46331
21774 1 0.309752 0.684549 0.463279
21773 1 0.281677 0.348696 0.46331
22322 1 0.267685 0.672593 0.487702
22324 1 0.29577 0.00709585 0.487678
22328 1 0.267685 0.172592 0.487702
22330 1 0.29577 0.507096 0.487678
21791 1 0.365876 0.858884 0.463202
21789 1 0.337818 0.521136 0.463244
21785 1 0.365876 0.358884 0.463202
21783 1 0.337819 0.0211361 0.463244
22333 1 0.323848 0.341901 0.487652
22334 1 0.351913 0.677204 0.487624
22336 1 0.379957 0.0133116 0.487589
22339 1 0.323848 0.841901 0.487652
22340 1 0.351913 0.177204 0.487624
22342 1 0.379957 0.513311 0.487589
21801 1 0.421972 0.541327 0.463074
21795 1 0.421972 0.0413267 0.463074
21792 1 0.393926 0.198498 0.463149
21786 1 0.393926 0.698497 0.463149
22345 1 0.407962 0.350782 0.487543
22346 1 0.435926 0.690891 0.487475
22351 1 0.407962 0.850782 0.487543
22352 1 0.435926 0.190889 0.487474
21804 1 0.478574 0.262599 0.463024
21803 1 0.450087 0.891928 0.462953
21798 1 0.478574 0.762598 0.463024
21797 1 0.450087 0.391926 0.462953
22348 1 0.463977 0.0414551 0.487317
22354 1 0.463977 0.541455 0.487317
22357 1 0.492945 0.458303 0.487364
22363 1 0.492945 0.958303 0.487364
22287 3 0.00038843 0.997385 0.512186
22289 3 0.0285356 0.33056 0.512186
22290 1 0.0570594 0.663119 0.512161
22293 3 0.00038843 0.497385 0.512186
22295 3 0.0285356 0.830561 0.512186
22296 1 0.0570594 0.163119 0.512161
22838 3 0.014462 0.659951 0.536557
22839 3 0.00038843 0.989596 0.560928
22840 1 0.0429067 0.992279 0.536491
22841 3 0.0285356 0.322308 0.560928
22842 1 0.0570102 0.654642 0.560926
22844 3 0.014462 0.159952 0.536557
22845 3 0.00038843 0.489596 0.560928
22846 1 0.0429067 0.492279 0.536491
22847 3 0.0285356 0.822309 0.560928
22848 1 0.0570102 0.154642 0.560926
22299 1 0.0851018 0.996435 0.512178
22301 1 0.113189 0.32992 0.512172
22305 1 0.0851018 0.496435 0.512178
22307 1 0.113189 0.82992 0.512172
22849 1 0.0710316 0.325301 0.536553
22850 1 0.0991427 0.658348 0.536546
22851 1 0.0850775 0.987196 0.56092
22852 1 0.127248 0.991432 0.536534
22853 1 0.113202 0.319896 0.560902
22855 1 0.0710316 0.825301 0.536553
22856 1 0.0991427 0.158348 0.536546
22857 1 0.0850775 0.487196 0.56092
22858 1 0.127248 0.491432 0.536534
22859 1 0.113202 0.819896 0.560902
22302 1 0.141287 0.663462 0.512159
22308 1 0.141287 0.163462 0.512159
22311 1 0.169389 0.996977 0.512144
22317 1 0.169389 0.496977 0.512144
22854 1 0.141321 0.652551 0.560891
22860 1 0.141321 0.152551 0.560891
22861 1 0.15536 0.32449 0.53652
22862 1 0.183472 0.657442 0.536504
22863 1 0.16944 0.985066 0.560878
22867 1 0.15536 0.82449 0.53652
22868 1 0.183472 0.157442 0.536504
22869 1 0.16944 0.485066 0.560878
22313 1 0.197492 0.330456 0.512127
22314 1 0.225594 0.663894 0.512109
22319 1 0.197492 0.830456 0.512127
22320 1 0.225594 0.163894 0.512109
22323 1 0.253695 0.997278 0.51209
22329 1 0.253695 0.497278 0.51209
22864 1 0.211583 0.990254 0.536488
22865 1 0.197559 0.317377 0.560864
22866 1 0.225679 0.649421 0.560849
22870 1 0.211583 0.490254 0.536488
22871 1 0.197559 0.817377 0.560864
22872 1 0.225679 0.149421 0.560849
22873 1 0.239695 0.322883 0.536472
22875 1 0.2538 0.981103 0.560836
22879 1 0.239695 0.822883 0.536472
22881 1 0.2538 0.481103 0.560836
22325 1 0.281794 0.330597 0.512071
22326 1 0.309889 0.663838 0.512054
22331 1 0.281794 0.830597 0.512071
22332 1 0.309889 0.163838 0.512054
22874 1 0.267806 0.655257 0.536457
22876 1 0.295917 0.987284 0.536444
22877 1 0.281922 0.312282 0.560826
22878 1 0.310044 0.642757 0.560824
22880 1 0.267806 0.155257 0.536457
22882 1 0.295917 0.487284 0.536444
22883 1 0.281922 0.812283 0.560826
22884 1 0.310044 0.142757 0.560824
22335 1 0.337978 0.996962 0.512039
22337 1 0.366057 0.329865 0.512027
22341 1 0.337978 0.496962 0.512039
22343 1 0.366057 0.829865 0.512027
22885 1 0.324027 0.318795 0.536437
22886 1 0.352134 0.649463 0.53644
22887 1 0.338165 0.972161 0.560832
22888 1 0.380238 0.978614 0.53646
22889 1 0.366284 0.299851 0.560861
22891 1 0.324027 0.818795 0.536437
22892 1 0.352134 0.149462 0.53644
22893 1 0.338165 0.472161 0.560832
22894 1 0.380238 0.478614 0.53646
22895 1 0.366284 0.799851 0.560861
22338 1 0.394116 0.662238 0.512022
22344 1 0.394116 0.162237 0.512022
22347 1 0.422152 0.993208 0.512035
22353 1 0.422152 0.493209 0.512035
22890 1 0.394399 0.624696 0.560927
22896 1 0.394399 0.124697 0.560927
22897 1 0.40834 0.304838 0.536515
22898 1 0.436462 0.62482 0.536642
22899 1 0.422512 0.944687 0.561058
22903 1 0.40834 0.804837 0.536515
22904 1 0.436462 0.124821 0.536642
22905 1 0.422512 0.444687 0.561058
22349 1 0.450233 0.320411 0.5121
22350 1 0.478505 0.624913 0.512368
22355 1 0.450233 0.82041 0.5121
22356 1 0.478504 0.124914 0.512368
22900 1 0.464603 0.929337 0.536985
22901 1 0.450619 0.256441 0.561336
22902 1 0.478778 0.558878 0.561686
22906 1 0.464602 0.429334 0.536985
22907 1 0.450619 0.756441 0.561336
22908 1 0.478778 0.0588802 0.561686
22909 1 0.492939 0.208398 0.537472
22915 1 0.492939 0.708401 0.537472
23390 3 0.014462 0.652025 0.585299
23392 1 0.0426765 0.985071 0.585356
23393 3 0.0285356 0.314287 0.609671
23394 1 0.057026 0.645624 0.609619
23396 3 0.014462 0.152025 0.585299
23398 1 0.0426765 0.485071 0.585356
23399 3 0.0285356 0.814288 0.609671
23400 1 0.057026 0.145624 0.609619
23401 1 0.0710348 0.316577 0.585279
23402 1 0.0991581 0.648832 0.585264
23403 1 0.085133 0.978039 0.609627
23404 1 0.127277 0.98111 0.585259
23405 1 0.113236 0.310152 0.609627
23407 1 0.0710348 0.816577 0.585279
23408 1 0.0991581 0.148832 0.585264
23409 1 0.085133 0.478039 0.609627
23410 1 0.127277 0.48111 0.585259
23411 1 0.113236 0.810152 0.609627
23406 1 0.141345 0.64207 0.609621
23412 1 0.141345 0.14207 0.609621
23413 1 0.155398 0.313289 0.585249
23414 1 0.183521 0.645225 0.585237
23415 1 0.169469 0.973745 0.609609
23419 1 0.155398 0.813289 0.585249
23420 1 0.183521 0.145225 0.585237
23421 1 0.169469 0.473745 0.609609
23416 1 0.211647 0.976843 0.585223
23417 1 0.197598 0.305071 0.609595
23418 1 0.225729 0.635966 0.609583
23422 1 0.211647 0.476843 0.585223
23423 1 0.197598 0.805071 0.609595
23424 1 0.225729 0.135966 0.609583
23425 1 0.239774 0.308049 0.585211
23427 1 0.253862 0.966288 0.609574
23431 1 0.239774 0.808049 0.585211
23433 1 0.253862 0.466288 0.609574
23426 1 0.267902 0.63869 0.585202
23428 1 0.296031 0.968564 0.585202
23429 1 0.281994 0.295864 0.609574
23430 1 0.310123 0.624438 0.609586
23432 1 0.267902 0.13869 0.585202
23434 1 0.296031 0.468564 0.585202
23435 1 0.281994 0.795864 0.609574
23436 1 0.310123 0.124438 0.609586
23437 1 0.324158 0.297358 0.585213
23438 1 0.352282 0.624566 0.585244
23439 1 0.338249 0.951644 0.609616
23440 1 0.3804 0.949413 0.585308
23441 1 0.366368 0.276972 0.609674
23443 1 0.324158 0.797358 0.585213
23444 1 0.352282 0.124567 0.585244
23445 1 0.338249 0.451644 0.609616
23446 1 0.3804 0.449413 0.585308
23447 1 0.366368 0.776973 0.609674
23442 1 0.394478 0.599805 0.60977
23448 1 0.394478 0.0998051 0.60977
23449 1 0.408511 0.270785 0.585422
23450 1 0.436615 0.587299 0.58562
23451 1 0.422583 0.919541 0.609917
23455 1 0.408511 0.770785 0.585422
23456 1 0.436615 0.087298 0.58562
23457 1 0.422583 0.41954 0.609917
23452 1 0.464739 0.898882 0.585868
23453 1 0.450699 0.236233 0.610096
23454 1 0.47885 0.551188 0.610217
23458 1 0.464739 0.398885 0.585868
23459 1 0.450699 0.736234 0.610096
23460 1 0.47885 0.0511858 0.610217
23461 1 0.492936 0.208465 0.585968
23467 1 0.492935 0.708461 0.585968
23942 3 0.014462 0.64438 0.634042
23944 3 0.0426091 0.976404 0.634042
23945 3 0.0285356 0.306642 0.658413
23946 3 0.0566827 0.638397 0.658413
23948 3 0.014462 0.144381 0.634042
23950 3 0.0426091 0.476404 0.634042
23951 3 0.0285356 0.806642 0.658413
23952 3 0.0566827 0.138398 0.658413
24496 3 0.0426091 0.968809 0.682784
24502 3 0.0426091 0.468808 0.682784
23953 1 0.0711201 0.30796 0.633979
23954 1 0.0991587 0.639741 0.634002
23955 1 0.0850527 0.970077 0.658341
23956 1 0.127278 0.971444 0.633993
23957 1 0.113173 0.301443 0.658361
23959 1 0.0711201 0.80796 0.633979
23960 1 0.0991587 0.139741 0.634002
23961 1 0.0850527 0.470077 0.658341
23962 1 0.127278 0.471444 0.633993
23963 1 0.113173 0.801443 0.658361
24505 1 0.0707985 0.300348 0.682771
24506 1 0.0991137 0.631719 0.682693
24508 1 0.127225 0.962816 0.682714
24511 1 0.0707985 0.800348 0.682771
24512 1 0.0991137 0.131719 0.682693
24514 1 0.127225 0.462816 0.682714
23958 1 0.141317 0.63264 0.658349
23964 1 0.141317 0.13264 0.658349
23965 1 0.155401 0.302896 0.633981
23966 1 0.183534 0.63401 0.633966
23967 1 0.169456 0.963579 0.658336
23971 1 0.155401 0.802896 0.633981
23972 1 0.183534 0.13401 0.633966
23973 1 0.169456 0.463579 0.658336
24517 1 0.155372 0.293645 0.682702
24518 1 0.183513 0.62415 0.682689
24523 1 0.155372 0.793645 0.682702
24524 1 0.183513 0.12415 0.682689
23968 1 0.211669 0.964707 0.633953
23969 1 0.197597 0.294147 0.658321
23970 1 0.225736 0.624231 0.658311
23974 1 0.211669 0.464707 0.633953
23975 1 0.197597 0.794147 0.658321
23976 1 0.225736 0.124231 0.658311
23977 1 0.239805 0.294863 0.633944
23979 1 0.253873 0.953691 0.658309
23983 1 0.239805 0.794862 0.633944
23985 1 0.253873 0.453691 0.658309
24520 1 0.211658 0.954228 0.682676
24526 1 0.211658 0.454228 0.682676
24529 1 0.239798 0.283758 0.682671
24535 1 0.239798 0.783758 0.682671
23978 1 0.26794 0.624324 0.633943
23980 1 0.296071 0.952893 0.633954
23981 1 0.282006 0.282365 0.658318
23982 1 0.310133 0.610068 0.658342
23984 1 0.26794 0.124324 0.633943
23986 1 0.296071 0.452893 0.633954
23987 1 0.282006 0.782365 0.658318
23988 1 0.310133 0.110068 0.658342
24530 1 0.267934 0.612597 0.682678
24532 1 0.296063 0.940613 0.682699
24536 1 0.267934 0.112597 0.682678
24538 1 0.296063 0.440613 0.682699
23989 1 0.324197 0.280311 0.633982