ITEM: TIMESTEP
38
ITEM: NUMBER OF ATOMS
2356
ITEM: BOX BOUNDS ss pp ss
-4.0972079223999998e+01 4.1846228795000002e+01
-4.1208122699999999e-01 4.5329187729999996e+00
-4.0155760290000003e+01 4.0660435401000001e+01
ITEM: ATOMS id type xs ys zs
17355 3 0.253713 0.0847949 0.0503597
17361 3 0.253713 0.584794 0.0503597
17356 3 0.295933 0.0925463 0.0253797
17357 3 0.28186 0.422171 0.0503597
17358 3 0.310007 0.759759 0.0503597
17362 3 0.295933 0.592546 0.0253797
17363 3 0.28186 0.922172 0.0503597
17364 3 0.310007 0.25976 0.0503597
16817 3 0.366301 0.437714 0.00039968
16823 3 0.366301 0.937714 0.00039968
17365 3 0.32408 0.430071 0.0253797
17366 3 0.352228 0.767767 0.0253797
17367 1 0.338237 0.0970273 0.0503917
17368 3 0.380375 0.105616 0.0253797
17369 1 0.36643 0.436464 0.0506919
17371 3 0.32408 0.930071 0.0253797
17372 3 0.352228 0.267767 0.0253797
17373 1 0.338237 0.597027 0.0503917
17374 3 0.380375 0.605616 0.0253797
17375 1 0.36643 0.936464 0.0506919
16818 3 0.394448 0.775426 0.00039968
16824 3 0.394448 0.275426 0.00039968
16827 3 0.422595 0.11324 0.00039968
16833 3 0.422595 0.613239 0.00039968
17370 1 0.394577 0.774109 0.0507163
17376 1 0.394577 0.274109 0.0507163
17377 3 0.408522 0.443595 0.0253797
17378 1 0.436678 0.781704 0.025425
17379 1 0.422645 0.111995 0.0505964
17383 3 0.408522 0.943596 0.0253797
17384 1 0.436678 0.281704 0.025425
17385 1 0.422645 0.611995 0.0505964
16829 3 0.450743 0.451129 0.00039968
16830 3 0.47889 0.789067 0.00039968
16835 3 0.450743 0.95113 0.00039968
16836 3 0.47889 0.289068 0.00039968
17380 1 0.464822 0.119859 0.0254294
17381 1 0.450768 0.450377 0.0505964
17382 1 0.478898 0.78882 0.0505968
17386 1 0.464822 0.619859 0.0254294
17387 1 0.450768 0.950377 0.0505964
17388 1 0.478898 0.28882 0.0505968
17389 1 0.492964 0.458047 0.0254295
17395 1 0.492964 0.958047 0.0254295
17895 3 0.169271 0.0693553 0.10032
17901 3 0.169271 0.569355 0.10032
18445 3 0.155198 0.398447 0.1253
18446 3 0.183345 0.735203 0.1253
18451 3 0.155198 0.898448 0.1253
18452 3 0.183345 0.235203 0.1253
17896 3 0.211492 0.0770157 0.0753397
17897 3 0.197418 0.406202 0.10032
17898 3 0.225565 0.743305 0.10032
17902 3 0.211492 0.577015 0.0753397
17903 3 0.197418 0.906202 0.10032
17904 3 0.225565 0.243306 0.10032
17905 3 0.239639 0.414161 0.0753397
17907 1 0.253847 0.0814994 0.100559
17911 3 0.239639 0.914162 0.0753397
17913 1 0.253847 0.581499 0.100559
18448 1 0.211701 0.0727655 0.125518
18454 1 0.211701 0.572766 0.125518
18457 1 0.239849 0.410208 0.125614
18463 1 0.239849 0.910208 0.125614
17906 3 0.267786 0.751549 0.0753397
17908 1 0.296026 0.0898566 0.0756389
17909 1 0.282031 0.419067 0.100668
17910 1 0.310146 0.756873 0.100569
17912 3 0.267786 0.251549 0.0753397
17914 1 0.296026 0.589857 0.0756389
17915 1 0.282031 0.919067 0.100668
17916 1 0.310146 0.256873 0.100569
18458 1 0.26793 0.74778 0.125551
18460 1 0.296069 0.0857877 0.125549
18464 1 0.26793 0.24778 0.125551
18466 1 0.296069 0.585788 0.125549
17917 1 0.324244 0.427488 0.0756332
17918 1 0.352352 0.765547 0.0756001
17919 1 0.338274 0.0949585 0.100548
17920 1 0.380491 0.104076 0.0756342
17921 1 0.366402 0.433316 0.100569
17923 1 0.324244 0.927488 0.0756332
17924 1 0.352352 0.265547 0.0756001
17925 1 0.338274 0.594958 0.100548
17926 1 0.380491 0.604076 0.0756342
17927 1 0.366402 0.933316 0.100569
18469 1 0.324196 0.423853 0.125523
18470 1 0.352323 0.762295 0.125519
18472 1 0.380458 0.101084 0.125528
18475 1 0.324196 0.923853 0.125523
18476 1 0.352323 0.262295 0.125519
18478 1 0.380458 0.601084 0.125528
17922 1 0.394543 0.771995 0.100578
17928 1 0.394543 0.271995 0.100578
17929 1 0.408616 0.442367 0.0755906
17930 1 0.436722 0.780674 0.0755461
17931 1 0.422669 0.110707 0.100553
17935 1 0.408616 0.942367 0.0755906
17936 1 0.436722 0.280674 0.0755461
17937 1 0.422669 0.610707 0.100553
18481 1 0.408594 0.44013 0.125529
18482 1 0.436722 0.779303 0.125521
18487 1 0.408594 0.94013 0.125529
18488 1 0.436722 0.279303 0.125521
17932 1 0.464841 0.119317 0.0755383
17933 1 0.450786 0.449521 0.100533
17934 1 0.478906 0.788525 0.100528
17938 1 0.464841 0.619317 0.0755383
17939 1 0.450786 0.949521 0.100533
17940 1 0.478906 0.288525 0.100528
18484 1 0.464845 0.118631 0.125515
18490 1 0.464845 0.618631 0.125515
17941 1 0.492965 0.458051 0.0755371
17947 1 0.492965 0.958051 0.0755371
18493 1 0.492967 0.458063 0.125514
18499 1 0.492967 0.958063 0.125514
18986 3 0.0989034 0.720015 0.17526
18988 3 0.127051 0.0562282 0.17526
18992 3 0.0989034 0.220016 0.17526
18994 3 0.127051 0.556228 0.17526
18438 3 0.141124 0.727398 0.15028
18444 3 0.141124 0.227399 0.15028
18447 3 0.169271 0.0640313 0.15028
18453 3 0.169271 0.564031 0.15028
18997 1 0.155163 0.392338 0.175379
18998 1 0.183396 0.729594 0.175413
19003 1 0.155163 0.892338 0.175379
19004 1 0.183396 0.229594 0.175413
18449 1 0.19762 0.401247 0.150551
18450 1 0.225704 0.738627 0.150503
18455 1 0.19762 0.901247 0.150551
18456 1 0.225704 0.238627 0.150503
18459 1 0.253842 0.0763244 0.15051
18465 1 0.253842 0.576324 0.15051
19000 1 0.211555 0.0669695 0.175433
19006 1 0.211555 0.56697 0.175433
19009 1 0.239718 0.404413 0.175438
19015 1 0.239718 0.904413 0.175438
18461 1 0.281971 0.414126 0.150493
18462 1 0.310107 0.752341 0.150481
18467 1 0.281971 0.914126 0.150493
18468 1 0.310107 0.252341 0.150481
19010 1 0.267864 0.742224 0.175433
19012 1 0.296005 0.0803341 0.175425
19016 1 0.267864 0.242224 0.175433
19018 1 0.296005 0.580334 0.175425
18471 1 0.338239 0.090821 0.150474
18473 1 0.366374 0.429701 0.150482
18477 1 0.338239 0.590821 0.150474
18479 1 0.366374 0.929701 0.150482
19021 1 0.324145 0.418867 0.175426
19022 1 0.352284 0.757833 0.175432
19024 1 0.380424 0.0972597 0.175445
19027 1 0.324145 0.918867 0.175426
19028 1 0.352284 0.257833 0.175432
19030 1 0.380424 0.59726 0.175445
18474 1 0.394512 0.76897 0.150493
18480 1 0.394512 0.26897 0.150493
18483 1 0.422647 0.108514 0.150498
18489 1 0.422647 0.608514 0.150498
19033 1 0.408565 0.437099 0.175459
19034 1 0.436702 0.777251 0.17547
19039 1 0.408565 0.937099 0.175459
19040 1 0.436702 0.277251 0.17547
18485 1 0.450777 0.448245 0.150499
18486 1 0.478905 0.788117 0.1505
18491 1 0.450777 0.948245 0.150499
18492 1 0.478905 0.288117 0.1505
19036 1 0.464836 0.117612 0.175477
19042 1 0.464836 0.617612 0.175477
19045 1 0.492969 0.458091 0.17548
19051 1 0.492969 0.958091 0.17548
18987 3 0.0848298 0.0489308 0.20024
18989 3 0.112977 0.384961 0.20024
18993 3 0.0848298 0.54893 0.20024
18995 3 0.112977 0.884961 0.20024
19537 3 0.0707563 0.3778 0.22522
19538 3 0.0989034 0.713627 0.22522
19540 1 0.127265 0.0499778 0.225482
19543 3 0.0707563 0.877801 0.22522
19544 3 0.0989034 0.213627 0.22522
19546 1 0.127265 0.549978 0.225482
18990 1 0.141311 0.721996 0.200501
18996 1 0.141311 0.221996 0.200501
18999 1 0.169387 0.0581391 0.200426
19005 1 0.169387 0.558139 0.200426
19549 1 0.155343 0.386518 0.225406
19550 1 0.183437 0.722999 0.225339
19555 1 0.155343 0.886518 0.225406
19556 1 0.183437 0.222999 0.225339
19001 1 0.197469 0.394886 0.200353
19002 1 0.225612 0.73226 0.200361
19007 1 0.197469 0.894886 0.200353
19008 1 0.225612 0.23226 0.200361
19011 1 0.253754 0.0698921 0.200362
19017 1 0.253754 0.569892 0.200362
19552 1 0.211538 0.0598837 0.225302
19558 1 0.211538 0.559884 0.225302
19561 1 0.239662 0.397287 0.225297
19567 1 0.239662 0.897287 0.225297
19013 1 0.2819 0.407931 0.200364
19014 1 0.310043 0.746422 0.200366
19019 1 0.2819 0.907931 0.200364
19020 1 0.310043 0.246422 0.200366
19562 1 0.267798 0.735151 0.225298
19564 1 0.295938 0.0735216 0.2253
19568 1 0.267798 0.235151 0.225298
19570 1 0.295938 0.573522 0.2253
19023 1 0.338186 0.0854192 0.200373
19025 1 0.36633 0.424952 0.200388
19029 1 0.338186 0.585419 0.200373
19031 1 0.36633 0.924952 0.200388
19573 1 0.32408 0.412454 0.225308
19574 1 0.352227 0.752003 0.225323
19576 1 0.380375 0.0922093 0.225345
19579 1 0.32408 0.912454 0.225308
19580 1 0.352227 0.252003 0.225323
19582 1 0.380375 0.592209 0.225345
19026 1 0.394474 0.765015 0.200408
19032 1 0.394474 0.265015 0.200408
19035 1 0.422619 0.105548 0.200428
19041 1 0.422619 0.605547 0.200428
19585 1 0.408526 0.433045 0.225372
19586 1 0.436675 0.774414 0.225398
19591 1 0.408526 0.933045 0.225372
19592 1 0.436675 0.274414 0.225398
19037 1 0.45076 0.446425 0.200444
19038 1 0.4789 0.787517 0.200453
19043 1 0.45076 0.946425 0.200444
19044 1 0.4789 0.287517 0.200453
19588 1 0.464823 0.116164 0.225416
19594 1 0.464823 0.616164 0.225416
19597 1 0.49297 0.45812 0.225424
19603 1 0.49297 0.95812 0.225424
19530 3 0.0566827 0.706653 0.2502
19536 3 0.0566827 0.206653 0.2502
20080 3 0.0426091 0.0355163 0.27518
20081 3 0.0285356 0.364417 0.30016
20082 3 0.0566827 0.699534 0.30016
20086 3 0.0426091 0.535516 0.27518
20087 3 0.0285356 0.864418 0.30016
20088 3 0.0566827 0.199535 0.30016
19539 3 0.0848298 0.0422562 0.2502
19541 1 0.113128 0.378117 0.250319
19545 3 0.0848298 0.542256 0.2502
19547 1 0.113128 0.878117 0.250319
20089 3 0.0707563 0.37088 0.27518
20090 1 0.0990809 0.7064 0.275252
20091 1 0.0851602 0.0345347 0.300216
20092 1 0.127165 0.0422581 0.275244
20093 1 0.113156 0.370004 0.300192
20095 3 0.0707563 0.870881 0.27518
20096 1 0.0990809 0.2064 0.275252
20097 1 0.0851602 0.534535 0.300216
20098 1 0.127165 0.542258 0.275244
20099 1 0.113156 0.870004 0.300192
19542 1 0.141243 0.714512 0.250338
19548 1 0.141243 0.214512 0.250338
19551 1 0.169371 0.0509075 0.250315
19557 1 0.169371 0.550907 0.250315
20094 1 0.14124 0.705968 0.300199
20100 1 0.14124 0.205968 0.300199
20101 1 0.155292 0.378535 0.275257
20102 1 0.183403 0.714981 0.275235
20103 1 0.169336 0.0422369 0.300194
20107 1 0.155292 0.878535 0.275257
20108 1 0.183403 0.214981 0.275235
20109 1 0.169336 0.542237 0.300194
19553 1 0.197475 0.387523 0.250271
19554 1 0.225584 0.724547 0.250247
19559 1 0.197475 0.887523 0.250271
19560 1 0.225584 0.224547 0.250247
19563 1 0.253705 0.0621147 0.250238
19569 1 0.253705 0.562115 0.250238
20104 1 0.211511 0.0517124 0.27521
20105 1 0.197439 0.378736 0.300176
20106 1 0.225542 0.715593 0.300153
20110 1 0.211511 0.551712 0.27521
20111 1 0.197439 0.878736 0.300176
20112 1 0.225542 0.215593 0.300153
20113 1 0.239621 0.388913 0.27519
20115 1 0.25365 0.0529469 0.300133
20119 1 0.239621 0.888913 0.27519
20121 1 0.25365 0.552947 0.300133
19565 1 0.281835 0.400238 0.250236
19566 1 0.309973 0.738985 0.250239
19571 1 0.281835 0.900238 0.250236
19572 1 0.309973 0.238985 0.250239
20114 1 0.267739 0.726681 0.275179
20116 1 0.295866 0.0651021 0.275174
20117 1 0.281766 0.390926 0.300119
20118 1 0.309891 0.72967 0.300113
20120 1 0.267739 0.226681 0.275179
20122 1 0.295866 0.565102 0.275174
20123 1 0.281766 0.890926 0.300119
20124 1 0.309891 0.22967 0.300113
19575 1 0.338116 0.0784249 0.250251
19577 1 0.366266 0.418634 0.250273
19581 1 0.338116 0.578425 0.250251
19583 1 0.366266 0.918634 0.250273
20135 1 0.366178 0.910077 0.300137
20134 1 0.380305 0.585319 0.275223
20133 1 0.338028 0.569331 0.300118
20132 1 0.352149 0.244314 0.275195
20131 1 0.324003 0.904276 0.275179
20125 1 0.324003 0.404276 0.275179
20126 1 0.352149 0.744314 0.275195
20127 1 0.338028 0.0693311 0.300118
20128 1 0.380305 0.0853194 0.275223
20129 1 0.366178 0.410077 0.300137
20145 1 0.422515 0.595387 0.300216
20144 1 0.436634 0.270315 0.275301
20143 1 0.408467 0.927342 0.275261
19578 1 0.394421 0.759652 0.250303
20139 1 0.422515 0.0953876 0.300216
20138 1 0.436634 0.770315 0.275301
20137 1 0.408467 0.427342 0.275261
19584 1 0.394421 0.259652 0.250303
20136 1 0.394341 0.252069 0.300171
19587 1 0.422578 0.101431 0.250337
19593 1 0.422578 0.601431 0.250337
20130 1 0.394341 0.752069 0.300171
20148 1 0.47888 0.285297 0.300288
20147 1 0.450696 0.939907 0.30026
20146 1 0.464803 0.61402 0.275332
20142 1 0.47888 0.785297 0.300288
20141 1 0.450696 0.439907 0.30026
20140 1 0.464803 0.11402 0.275332
19589 1 0.450736 0.443835 0.250367
19590 1 0.478893 0.786651 0.250384
19595 1 0.450736 0.943835 0.250367
19596 1 0.478893 0.28665 0.250384
20149 1 0.492972 0.458142 0.275343
20155 1 0.492972 0.958142 0.275343
21190 3 0.0426091 0.520454 0.3751
21188 3 0.014462 0.18597 0.3751
21184 3 0.0426091 0.0204541 0.3751
21182 3 0.014462 0.685969 0.3751
20640 1 0.0567673 0.192143 0.350028
20639 3 0.0285356 0.857051 0.35012
20638 3 0.0426091 0.528248 0.32514
20634 1 0.0567673 0.692143 0.350028
20633 3 0.0285356 0.357051 0.35012
20632 3 0.0426091 0.0282483 0.32514
21202 1 0.127146 0.524562 0.375094
21200 1 0.099027 0.189585 0.375083
21199 1 0.0709126 0.854885 0.375066
21196 1 0.127146 0.0245617 0.375094
21194 1 0.099027 0.689585 0.375083
21193 1 0.0709126 0.354885 0.375066
20651 1 0.113127 0.861485 0.350137
20650 1 0.127201 0.533588 0.325165
20649 1 0.0850477 0.526352 0.350126
20648 1 0.0991365 0.197988 0.325171
20647 1 0.0710721 0.862502 0.325174
20645 1 0.113127 0.361485 0.350137
20644 1 0.127201 0.0335883 0.325165
20643 1 0.0850477 0.0263515 0.350126
20642 1 0.0991365 0.697988 0.325171
20641 1 0.0710721 0.362502 0.325174
21212 1 0.18335 0.195442 0.375072
21211 1 0.155252 0.859858 0.375087
21206 1 0.18335 0.695442 0.375072
21205 1 0.155252 0.359858 0.375087
20661 1 0.169311 0.532703 0.350115
20660 1 0.183372 0.205688 0.325143
20659 1 0.155278 0.869487 0.325157
20655 1 0.169311 0.0327029 0.350115
20654 1 0.183372 0.705688 0.325143
20653 1 0.155278 0.369487 0.325157
20652 1 0.141216 0.196935 0.350128
20646 1 0.141216 0.696935 0.350128
21223 1 0.239536 0.867673 0.375024
21217 1 0.239536 0.367673 0.375024
21214 1 0.211444 0.531358 0.37505
21208 1 0.211444 0.0313581 0.37505
20673 1 0.253597 0.542123 0.350045
20671 1 0.23957 0.879102 0.325098
20667 1 0.253597 0.0421231 0.350045
20665 1 0.23957 0.379102 0.325098
20664 1 0.2255 0.20521 0.350071
20663 1 0.197405 0.868773 0.350095
20662 1 0.21147 0.542186 0.325122
20658 1 0.2255 0.70521 0.350071
20657 1 0.197405 0.368773 0.350095
20656 1 0.21147 0.0421859 0.325122
21226 1 0.295721 0.542053 0.374968
21224 1 0.267627 0.204512 0.374996
21220 1 0.295721 0.0420528 0.374968
21218 1 0.267627 0.704512 0.374996
20676 1 0.309805 0.218024 0.35
20675 1 0.281697 0.879663 0.350021
20674 1 0.295787 0.554754 0.325059
20672 1 0.267675 0.216573 0.325076
20670 1 0.309805 0.718024 0.35
20669 1 0.281697 0.379663 0.350021
20668 1 0.295787 0.0547536 0.325059
20666 1 0.267675 0.716573 0.325076
21238 1 0.380066 0.561756 0.374915
21236 1 0.351933 0.22027 0.374922
21235 1 0.323821 0.880531 0.374942
21232 1 0.380066 0.0617556 0.374915
21230 1 0.351933 0.72027 0.374922
21229 1 0.323821 0.380531 0.374941
20687 1 0.36606 0.89827 0.349987
20686 1 0.380202 0.575647 0.325075
20685 1 0.337924 0.557451 0.349986
20684 1 0.352047 0.234047 0.325054
20683 1 0.32391 0.893839 0.325051
20681 1 0.36606 0.39827 0.349987
20680 1 0.380202 0.0756466 0.325075
20679 1 0.337924 0.0574512 0.349986
20678 1 0.352047 0.734046 0.325054
20677 1 0.32391 0.393839 0.325051
21248 1 0.436442 0.25304 0.374977
21247 1 0.408231 0.905697 0.374931
21242 1 0.436442 0.753039 0.374977
21241 1 0.408231 0.405697 0.374931
20697 1 0.42241 0.585861 0.350052
20696 1 0.436567 0.263951 0.325167
20695 1 0.408376 0.918907 0.325115
20691 1 0.42241 0.0858608 0.350052
20690 1 0.436567 0.763951 0.325167
20689 1 0.408376 0.418907 0.325115
20688 1 0.394221 0.240919 0.350008
20682 1 0.394221 0.740919 0.350008
21250 1 0.464697 0.604288 0.375042
21244 1 0.464697 0.104287 0.375042
20700 1 0.478856 0.282974 0.350153
20699 1 0.450625 0.933365 0.350111
20698 1 0.464768 0.610585 0.325213
20694 1 0.478855 0.782974 0.350153
20693 1 0.450625 0.433366 0.350111
20692 1 0.464768 0.110585 0.325213
21259 1 0.492973 0.958202 0.37507
21253 1 0.492973 0.458202 0.37507
20707 1 0.492973 0.958171 0.325231
20701 1 0.492973 0.45817 0.325231
21742 1 0.042899 0.511655 0.425136
21740 3 0.014462 0.178198 0.42506
21736 1 0.042899 0.0116548 0.425136
21734 3 0.014462 0.678198 0.42506
21192 1 0.0570144 0.183207 0.400122
21191 3 0.0285356 0.849242 0.40008
21189 3 0.00038843 0.515025 0.40008
21186 1 0.0570144 0.683207 0.400122
21185 3 0.0285356 0.349242 0.40008
21183 3 0.00038843 0.0150251 0.40008
21754 1 0.127179 0.51447 0.42503
21752 1 0.0990964 0.179979 0.425037
21751 1 0.0710157 0.845787 0.425069
21748 1 0.127179 0.0144701 0.42503
21746 1 0.0990964 0.679979 0.425037
21745 1 0.0710157 0.345787 0.425069
21203 1 0.113106 0.852164 0.400056
21201 1 0.0850103 0.517479 0.400045
21197 1 0.113106 0.352164 0.400056
21195 1 0.0850103 0.0174788 0.400045
21764 1 0.18337 0.184039 0.425013
21763 1 0.155276 0.84917 0.425025
21758 1 0.18337 0.684039 0.425013
21757 1 0.155276 0.34917 0.425025
21213 1 0.169306 0.522226 0.400048
21207 1 0.169306 0.0222264 0.400048
21204 1 0.141206 0.1871 0.400056
21198 1 0.141206 0.6871 0.400056
21775 1 0.239551 0.854496 0.424972
21769 1 0.239551 0.354496 0.424972
21766 1 0.211462 0.519125 0.424995
21760 1 0.211462 0.019125 0.424995
21225 1 0.253579 0.529419 0.399981
21219 1 0.253579 0.0294193 0.399981
21216 1 0.225491 0.193311 0.400009
21215 1 0.197401 0.857612 0.400032
21210 1 0.225491 0.693311 0.400009
21209 1 0.197401 0.357612 0.400032
21778 1 0.295714 0.526587 0.424914
21776 1 0.267634 0.190263 0.424945
21772 1 0.295714 0.0265872 0.424914
21770 1 0.267634 0.690263 0.424945
21228 1 0.30975 0.203508 0.39992
21227 1 0.281664 0.866082 0.399952
21222 1 0.30975 0.703509 0.39992
21221 1 0.281664 0.366082 0.399952
21790 1 0.379945 0.541909 0.4248
21788 1 0.351865 0.201952 0.42484
21787 1 0.32379 0.863701 0.424879
21784 1 0.379945 0.0419091 0.4248
21782 1 0.351865 0.701952 0.42484
21781 1 0.32379 0.363701 0.424879
21239 1 0.365938 0.881948 0.399858
21237 1 0.337839 0.541985 0.399887
21233 1 0.365938 0.381948 0.399858
21231 1 0.337839 0.0419853 0.399887
21800 1 0.43619 0.232277 0.424714
21799 1 0.408043 0.884567 0.424759
21794 1 0.43619 0.732277 0.424714
21793 1 0.408043 0.384566 0.424759
21249 1 0.422226 0.569673 0.399837
21243 1 0.422226 0.0696735 0.399837
21240 1 0.394061 0.224097 0.399839
21234 1 0.394061 0.724097 0.399839
21802 1 0.464502 0.589852 0.424756
21796 1 0.464502 0.0898508 0.424756
21252 1 0.478799 0.27814 0.399953
21251 1 0.45047 0.920745 0.399882
21246 1 0.478799 0.778141 0.399953
21245 1 0.45047 0.420746 0.399882
21811 1 0.492973 0.958237 0.424846
21805 1 0.492973 0.458236 0.424846
21744 1 0.0570542 0.174173 0.450069
21743 3 0.0285356 0.841111 0.45004
21741 3 0.00038843 0.507337 0.45004
21738 1 0.0570542 0.674173 0.450069
21737 3 0.0285356 0.34111 0.45004
21735 3 0.00038843 0.00733727 0.45004
22286 3 0.014462 0.670199 0.47502
22287 3 0.00038843 0.99951 0.5
22288 1 0.0428793 0.00286117 0.475023
22289 3 0.0285356 0.332813 0.5
22290 1 0.0570541 0.665136 0.499994
22292 3 0.014462 0.170199 0.47502
22293 3 0.00038843 0.49951 0.5
22294 1 0.0428793 0.502861 0.475023
22295 3 0.0285356 0.832814 0.5
22296 1 0.0570541 0.165136 0.499994
21755 1 0.113167 0.842111 0.450016
21753 1 0.0850907 0.508031 0.450037
21749 1 0.113167 0.342111 0.450016
21747 1 0.0850907 0.0080308 0.450037
22297 1 0.0710388 0.336511 0.475025
22298 1 0.0991442 0.670176 0.475007
22299 1 0.0851142 0.998459 0.499988
22300 1 0.127235 0.00393337 0.474993
22301 1 0.113211 0.331881 0.499978
22303 1 0.0710388 0.836511 0.475025
22304 1 0.0991442 0.170176 0.475007
22305 1 0.0851142 0.498459 0.499988
22306 1 0.127235 0.503933 0.474993
22307 1 0.113211 0.831881 0.499978
21765 1 0.16935 0.510733 0.449996
21759 1 0.16935 0.0107332 0.449996
21756 1 0.141256 0.176367 0.450006
21750 1 0.141256 0.676367 0.450006
22302 1 0.14131 0.665309 0.499966
22308 1 0.14131 0.165309 0.499966
22309 1 0.155333 0.337801 0.474981
22310 1 0.183431 0.671731 0.474968
22311 1 0.169414 0.998724 0.499953
22315 1 0.155333 0.837801 0.474981
22316 1 0.183431 0.171731 0.474968
22317 1 0.169414 0.498724 0.499953
21777 1 0.253625 0.514767 0.449941
21771 1 0.253625 0.0147668 0.449941
21768 1 0.225537 0.179885 0.449964
21767 1 0.197444 0.845228 0.449982
21762 1 0.225537 0.679885 0.449964
21761 1 0.197444 0.345228 0.449982
22312 1 0.211529 0.00571584 0.474953
22313 1 0.197519 0.332106 0.499939
22314 1 0.225625 0.665432 0.499924
22318 1 0.211529 0.505716 0.474953
22319 1 0.197519 0.832106 0.499939
22320 1 0.225625 0.165432 0.499924
22321 1 0.239625 0.339773 0.474935
22323 1 0.253729 0.998695 0.499909
22327 1 0.239625 0.839773 0.474935
22329 1 0.253729 0.498695 0.499909
21780 1 0.309784 0.185701 0.449885
21779 1 0.281708 0.849988 0.449915
21774 1 0.309784 0.685701 0.449885
21773 1 0.281708 0.349989 0.449915
22322 1 0.267718 0.673952 0.474915
22324 1 0.295804 0.00831838 0.474892
22325 1 0.28183 0.331884 0.499893
22326 1 0.309926 0.664973 0.499878
22328 1 0.267718 0.173952 0.474915
22330 1 0.295804 0.508318 0.474892
22331 1 0.28183 0.831884 0.499893
22332 1 0.309926 0.164972 0.499878
21791 1 0.36591 0.859719 0.44981
21789 1 0.337852 0.522142 0.44985
21785 1 0.36591 0.359719 0.44981
21783 1 0.337852 0.0221422 0.449851
22333 1 0.323883 0.342974 0.474868
22334 1 0.351948 0.678113 0.474841
22335 1 0.338016 0.997934 0.499865
22336 1 0.379992 0.0140423 0.474809
22337 1 0.366093 0.330659 0.499857
22339 1 0.323883 0.842974 0.474868
22340 1 0.351948 0.178113 0.474841
22341 1 0.338016 0.497935 0.499865
22342 1 0.379992 0.514043 0.474809
22343 1 0.366093 0.830658 0.499857
21801 1 0.422003 0.541813 0.449687
21795 1 0.422003 0.0418128 0.449687
21792 1 0.393959 0.199156 0.44976
21786 1 0.393959 0.699157 0.44976
22338 1 0.394151 0.66285 0.499856
22344 1 0.394151 0.16285 0.499856
22345 1 0.407995 0.351342 0.474766
22346 1 0.435957 0.691283 0.4747
22347 1 0.422185 0.993648 0.499874
22351 1 0.407995 0.851341 0.474766
22352 1 0.435957 0.191285 0.4747
22353 1 0.422185 0.493646 0.499874
21804 1 0.478602 0.262724 0.449644
21803 1 0.450116 0.892245 0.449566
21798 1 0.478602 0.762725 0.449644
21797 1 0.450116 0.392247 0.449566
22348 1 0.464008 0.041735 0.474542
22349 1 0.450266 0.32068 0.499945
22363 1 0.492973 0.958278 0.474596
22354 1 0.464008 0.541735 0.474542
22355 1 0.450266 0.820681 0.499945
22357 1 0.492973 0.458278 0.474596
22838 3 0.014462 0.662128 0.52498
22839 3 0.00038843 0.991692 0.54996
22840 1 0.0428875 0.994208 0.524968
22841 3 0.0285356 0.324527 0.54996
22842 1 0.0570772 0.656369 0.549918
22844 3 0.014462 0.162128 0.52498
22845 3 0.00038843 0.491692 0.54996
22846 1 0.0428875 0.494208 0.524968
22847 3 0.0285356 0.824528 0.54996
22848 1 0.0570772 0.156369 0.549918
22849 1 0.0710566 0.32728 0.524959
22850 1 0.0991737 0.660279 0.524958
22851 1 0.085135 0.989008 0.549934
22852 1 0.127277 0.993275 0.52495
22853 1 0.113234 0.321685 0.549934
22855 1 0.0710566 0.82728 0.524959
22856 1 0.0991737 0.160279 0.524958
22857 1 0.085135 0.489008 0.549934
22858 1 0.127277 0.493275 0.52495
22859 1 0.113234 0.821685 0.549934
22854 1 0.141347 0.654312 0.54992
22860 1 0.141347 0.154312 0.54992
22861 1 0.155387 0.326251 0.524937
22862 1 0.1835 0.659121 0.524923
22863 1 0.169468 0.986778 0.549904
22867 1 0.155387 0.826251 0.524937
22868 1 0.1835 0.159121 0.524923
22869 1 0.169468 0.486778 0.549904
22864 1 0.211615 0.991835 0.524909
22865 1 0.197591 0.319011 0.549889
22866 1 0.225716 0.650941 0.549878
22870 1 0.211615 0.491835 0.524909
22871 1 0.197591 0.819011 0.549889
22872 1 0.225716 0.150941 0.549878
22873 1 0.23973 0.324348 0.524896
22875 1 0.25384 0.982492 0.549869
22879 1 0.23973 0.824348 0.524896
22881 1 0.25384 0.482492 0.549869
22874 1 0.267844 0.656597 0.524884
22876 1 0.295957 0.988481 0.524876
22877 1 0.281964 0.313536 0.549864
22878 1 0.310086 0.643856 0.549866
22880 1 0.267844 0.156597 0.524884
22882 1 0.295957 0.488481 0.524876
22883 1 0.281964 0.813536 0.549864
22884 1 0.310086 0.143856 0.549866
22885 1 0.324067 0.319829 0.524873
22886 1 0.352173 0.650313 0.524879
22887 1 0.338207 0.973076 0.549881
22888 1 0.380275 0.97928 0.524905
22889 1 0.366324 0.300574 0.549916
22891 1 0.324067 0.819829 0.524873
22892 1 0.352173 0.150314 0.524879
22893 1 0.338207 0.473076 0.549881
22894 1 0.380275 0.47928 0.524905
22895 1 0.366324 0.800575 0.549916
22890 1 0.394437 0.625231 0.549988
22896 1 0.394437 0.12523 0.549988
22897 1 0.408376 0.305317 0.524966
22898 1 0.436497 0.625119 0.5251
22899 1 0.422549 0.945031 0.550128
22903 1 0.408376 0.805318 0.524966
22904 1 0.436497 0.125117 0.5251
22905 1 0.422549 0.445031 0.550128
22900 1 0.464636 0.929455 0.525457
22901 1 0.450655 0.256612 0.550417
22902 1 0.478812 0.558895 0.55078
22906 1 0.464636 0.429458 0.525457
22907 1 0.450655 0.756612 0.550417
22908 1 0.478812 0.0588933 0.55078
22909 1 0.492971 0.208353 0.525961
22915 1 0.492971 0.708349 0.525961
22356 1 0.478536 0.124985 0.500225
22350 1 0.478535 0.624985 0.500225
23390 3 0.014462 0.654149 0.57494
23391 3 0.00038843 0.984032 0.59992
23392 1 0.0429164 0.985931 0.574854
23393 3 0.0285356 0.316428 0.59992
23394 1 0.0570411 0.648163 0.599864
23396 3 0.014462 0.15415 0.57494
23397 3 0.00038843 0.484031 0.59992
23398 1 0.0429164 0.485931 0.574854
23399 3 0.0285356 0.816429 0.59992
23400 1 0.0570411 0.148163 0.599864
23942 3 0.014462 0.646416 0.6249
23944 3 0.0426091 0.978547 0.6249
23948 3 0.014462 0.146416 0.6249
23950 3 0.0426091 0.478547 0.6249
23401 1 0.07106 0.318376 0.574909
23402 1 0.0991713 0.650637 0.57492
23403 1 0.0850754 0.980023 0.59992
23404 1 0.127287 0.982917 0.574903
23405 1 0.113213 0.312044 0.599885
23407 1 0.07106 0.818376 0.574909
23408 1 0.0991713 0.150637 0.57492
23409 1 0.0850754 0.480023 0.59992
23410 1 0.127287 0.482917 0.574903
23411 1 0.113213 0.812044 0.599885
23953 1 0.070957 0.31012 0.624908
23954 1 0.0991195 0.641708 0.624865
23956 1 0.127287 0.973291 0.624826
23959 1 0.070957 0.81012 0.624908
23960 1 0.0991195 0.141708 0.624865
23962 1 0.127287 0.473291 0.624826
23406 1 0.141356 0.643928 0.599857
23412 1 0.141356 0.143928 0.599857
23413 1 0.155419 0.315061 0.574882
23414 1 0.183552 0.646931 0.574865
23415 1 0.1695 0.97552 0.599837
23419 1 0.155419 0.815061 0.574882
23420 1 0.183552 0.146931 0.574865
23421 1 0.1695 0.47552 0.599837
23965 1 0.15544 0.304688 0.624805
23966 1 0.183585 0.635716 0.624794
23971 1 0.15544 0.804688 0.624805
23972 1 0.183585 0.135716 0.624794
23416 1 0.211685 0.978437 0.574854
23417 1 0.19764 0.306735 0.599826
23418 1 0.225777 0.637478 0.599821
23422 1 0.211685 0.478437 0.574854
23423 1 0.19764 0.806735 0.599826
23424 1 0.225777 0.137478 0.599821
23425 1 0.239817 0.309498 0.574847
23427 1 0.253911 0.967641 0.599822
23431 1 0.239817 0.809498 0.574847
23433 1 0.253911 0.467641 0.599822
23968 1 0.211725 0.966275 0.624791
23974 1 0.211725 0.466275 0.624791
23977 1 0.23986 0.296262 0.624794
23983 1 0.23986 0.796262 0.624794
23426 1 0.267947 0.639996 0.574845
23428 1 0.296076 0.969721 0.574851
23429 1 0.282042 0.297061 0.59983
23430 1 0.31017 0.625472 0.599849
23432 1 0.267947 0.139996 0.574845
23434 1 0.296076 0.469721 0.574851
23435 1 0.282042 0.797061 0.59983
23436 1 0.31017 0.125472 0.599849
23978 1 0.267992 0.625552 0.624804
23980 1 0.29612 0.95396 0.624824
23984 1 0.267992 0.125552 0.624804
23986 1 0.29612 0.45396 0.624824
23437 1 0.324202 0.298341 0.574869
23438 1 0.352324 0.625355 0.574907
23439 1 0.338294 0.952499 0.599887
23440 1 0.380441 0.95001 0.574978
23441 1 0.36641 0.277642 0.599953
23443 1 0.324202 0.798341 0.574869
23444 1 0.352324 0.125355 0.574907
23445 1 0.338294 0.452499 0.599887
23446 1 0.380441 0.45001 0.574978
23447 1 0.36641 0.777642 0.599953
23989 1 0.324243 0.281217 0.624861
23990 1 0.35236 0.606985 0.624919
23992 1 0.380469 0.930905 0.625008
23995 1 0.324243 0.781217 0.624861
23996 1 0.35236 0.106985 0.624919
23998 1 0.380469 0.430904 0.625008
23442 1 0.394519 0.600284 0.600058
23448 1 0.394519 0.100284 0.600058
23449 1 0.40855 0.27119 0.575101
23450 1 0.436653 0.587523 0.575309
23451 1 0.422622 0.919837 0.600214
23455 1 0.40855 0.771189 0.575101
23456 1 0.436653 0.0875247 0.575309
23457 1 0.422622 0.419837 0.600214
24001 1 0.408575 0.252691 0.625131
24002 1 0.436687 0.572415 0.625277
24007 1 0.408575 0.752692 0.625131
24008 1 0.436687 0.0724138 0.625277
23452 1 0.464775 0.89895 0.575567
23453 1 0.450736 0.23636 0.600401
23454 1 0.478886 0.55116 0.600528
23458 1 0.464775 0.398947 0.575567
23459 1 0.450736 0.73636 0.600401
23460 1 0.478886 0.0511612 0.600528
24004 1 0.464819 0.890716 0.625399
24010 1 0.464819 0.390718 0.625399
23461 1 0.49297 0.208386 0.575672
23467 1 0.49297 0.70839 0.575672
24013 1 0.49297 0.208439 0.625446
24019 1 0.49297 0.708437 0.625446
23945 3 0.0285356 0.308669 0.64988
23946 1 0.0568034 0.640461 0.649954
23951 3 0.0285356 0.808669 0.64988
23952 1 0.0568034 0.140461 0.649954
24496 3 0.0426091 0.970814 0.67486
24502 3 0.0426091 0.470813 0.67486
23955 1 0.0851212 0.97142 0.649835
23957 1 0.113248 0.302938 0.649793
23961 1 0.0851212 0.47142 0.649835
23963 1 0.113248 0.802938 0.649793
24505 1 0.0711149 0.301213 0.674805
24506 1 0.0992233 0.632893 0.674775
24508 1 0.127337 0.964257 0.674745
24511 1 0.0711149 0.801213 0.674805
24512 1 0.0992233 0.132893 0.674775
24514 1 0.127337 0.464257 0.674745
23958 1 0.141384 0.634266 0.649772
23964 1 0.141384 0.134266 0.649772
23967 1 0.169526 0.965252 0.64976
23973 1 0.169526 0.465252 0.64976
24517 1 0.155462 0.295271 0.674727
24518 1 0.183598 0.62578 0.674724
24523 1 0.155462 0.795271 0.674727
24524 1 0.183598 0.12578 0.674724
23969 1 0.197664 0.295743 0.649758
23970 1 0.225799 0.62567 0.649764
23975 1 0.197664 0.795743 0.649758
23976 1 0.225799 0.12567 0.649764
23979 1 0.253931 0.954954 0.649775
23985 1 0.253931 0.454954 0.649775
24520 1 0.211731 0.955717 0.674731
24526 1 0.211731 0.455717 0.674731
24529 1 0.239861 0.285061 0.674744
24535 1 0.239861 0.785061 0.674744
23981 1 0.282058 0.283461 0.649796
23982 1 0.310181 0.611012 0.649829
23987 1 0.282058 0.783461 0.649796
23988 1 0.310181 0.111012 0.649829
24530 1 0.267988 0.613729 0.674765
24532 1 0.296111 0.941587 0.674795
24536 1 0.267988 0.113729 0.674765
24538 1 0.296111 0.441587 0.674795
23991 1 0.338298 0.937387 0.649881
23993 1 0.36641 0.262359 0.649956
23997 1 0.338298 0.437387 0.649881
23999 1 0.36641 0.762359 0.649956
24541 1 0.32423 0.268494 0.674841
24542 1 0.352344 0.594313 0.674904
24544 1 0.380456 0.918954 0.674987
24547 1 0.32423 0.768494 0.674841
24548 1 0.352344 0.0943126 0.674904
24550 1 0.380456 0.418954 0.674987
24560 1 0.436692 0.0649734 0.675178
24559 1 0.40857 0.742442 0.675083