ITEM: TIMESTEP
33
ITEM: NUMBER OF ATOMS
2350
ITEM: BOX BOUNDS ss pp ss
-4.1117772832000000e+01 4.1700535187000000e+01
-4.1208122699999999e-01 4.5329187729999996e+00
-4.1669852686000006e+01 4.1165132866000000e+01
ITEM: ATOMS id type xs ys zs
17356 3 0.295933 0.0918999 0.0491324
17362 3 0.295933 0.591899 0.0491324
16815 3 0.338154 0.0995662 0.0247612
16817 3 0.366301 0.43719 0.0247612
16821 3 0.338154 0.599566 0.0247612
16823 3 0.366301 0.937191 0.0247612
17365 3 0.32408 0.429453 0.0491324
17366 3 0.352228 0.767185 0.0491324
17368 3 0.380375 0.105077 0.0491324
17371 3 0.32408 0.929454 0.0491324
17372 3 0.352228 0.267186 0.0491324
17374 3 0.380375 0.605076 0.0491324
16818 3 0.394448 0.774945 0.0247612
16824 3 0.394448 0.274945 0.0247612
16826 3 0.436669 0.782244 0.00038994
16827 3 0.422595 0.112806 0.0247612
16832 3 0.436669 0.282244 0.00038994
16833 3 0.422595 0.612806 0.0247612
17377 1 0.408643 0.443101 0.0492015
17378 1 0.4368 0.782336 0.0494703
17383 1 0.408643 0.943101 0.0492015
17384 1 0.4368 0.282336 0.0494704
16828 3 0.464816 0.119995 0.00038994
16829 3 0.450743 0.450748 0.0247612
16830 3 0.47889 0.788742 0.0247612
16834 3 0.464816 0.619995 0.00038994
16835 3 0.450743 0.950748 0.0247612
16836 3 0.47889 0.288742 0.0247612
17380 1 0.464923 0.119928 0.0494945
17386 1 0.464923 0.619928 0.0494945
16837 3 0.492963 0.457776 0.00038994
16843 3 0.492963 0.957777 0.00038994
17389 1 0.492962 0.457708 0.0493817
17395 1 0.492962 0.957708 0.0493817
17895 3 0.169271 0.0685203 0.122246
17901 3 0.169271 0.56852 0.122246
17355 3 0.253713 0.084071 0.0735036
17361 3 0.253713 0.58407 0.0735036
17896 3 0.211492 0.0762279 0.0978748
17897 3 0.197418 0.405363 0.122246
17898 3 0.225565 0.742467 0.122246
17902 3 0.211492 0.576227 0.0978748
17903 3 0.197418 0.905363 0.122246
17904 3 0.225565 0.242467 0.122246
17905 3 0.239639 0.413381 0.0978748
17907 1 0.25385 0.0806948 0.122478
17911 3 0.239639 0.913381 0.0978748
17913 1 0.25385 0.580695 0.122478
17357 3 0.28186 0.421466 0.0735036
17358 3 0.310007 0.75908 0.0735036
17363 3 0.28186 0.921466 0.0735036
17364 3 0.310007 0.25908 0.0735036
17906 3 0.267786 0.750782 0.0978748
17908 1 0.296061 0.0893446 0.0981219
17909 1 0.28204 0.418396 0.12257
17910 1 0.310137 0.756223 0.122517
17912 3 0.267786 0.250782 0.0978748
17914 1 0.296061 0.589345 0.0981219
17915 1 0.28204 0.918396 0.12257
17916 1 0.310137 0.256223 0.122517
17367 1 0.338234 0.0976231 0.0738119
17369 1 0.366431 0.43538 0.0738417
17373 1 0.338234 0.597623 0.0738119
17375 1 0.366431 0.93538 0.0738417
17917 1 0.324241 0.427153 0.0982371
17918 1 0.352351 0.76513 0.0981529
17919 1 0.338282 0.0944824 0.122523
17920 1 0.380495 0.103478 0.0980881
17921 1 0.366416 0.432848 0.122487
17923 1 0.324241 0.927153 0.0982371
17924 1 0.352351 0.26513 0.0981529
17925 1 0.338282 0.594482 0.122523
17926 1 0.380495 0.603478 0.0980881
17927 1 0.366416 0.932848 0.122487
17370 1 0.394553 0.773409 0.0736747
17376 1 0.394553 0.273409 0.0736747
17379 1 0.422701 0.112092 0.0737787
17385 1 0.422701 0.612092 0.0737787
17922 1 0.394534 0.771441 0.122468
17928 1 0.394534 0.271441 0.122468
17929 1 0.408597 0.44179 0.0980804
17930 1 0.436728 0.780558 0.0981529
17931 1 0.422649 0.110192 0.122488
17935 1 0.408597 0.94179 0.0980804
17936 1 0.436728 0.280558 0.0981529
17937 1 0.422649 0.610192 0.122488
17381 1 0.450828 0.450619 0.073823
17382 1 0.478929 0.788759 0.0737911
17387 1 0.450828 0.950619 0.073823
17388 1 0.478929 0.288759 0.0737911
17932 1 0.46486 0.119236 0.0981799
17933 1 0.450779 0.449215 0.122525
17934 1 0.478907 0.788205 0.122541
17938 1 0.46486 0.619236 0.0981799
17939 1 0.450779 0.949215 0.122525
17940 1 0.478907 0.288205 0.122541
17941 1 0.492965 0.457663 0.0981781
17947 1 0.492965 0.957663 0.0981781
18438 3 0.141124 0.726479 0.170988
18444 3 0.141124 0.226479 0.170988
18445 3 0.155198 0.397568 0.146617
18446 3 0.183345 0.734313 0.146617
18447 3 0.169271 0.0630937 0.170988
18451 3 0.155198 0.897569 0.146617
18452 3 0.183345 0.234313 0.146617
18453 3 0.169271 0.563093 0.170988
18448 1 0.211702 0.0718917 0.14683
18449 1 0.19762 0.400328 0.171254
18450 1 0.225703 0.737723 0.171207
18454 1 0.211702 0.571892 0.14683
18455 1 0.19762 0.900328 0.171254
18456 1 0.225703 0.237723 0.171207
18457 1 0.239849 0.409358 0.146924
18459 1 0.25384 0.0754522 0.171214
18463 1 0.239849 0.909358 0.146924
18465 1 0.25384 0.575452 0.171214
18458 1 0.267931 0.746998 0.146859
18460 1 0.296064 0.0850332 0.146869
18461 1 0.281968 0.413297 0.171202
18462 1 0.310104 0.751588 0.1712
18464 1 0.267931 0.246998 0.146859
18466 1 0.296064 0.585033 0.146869
18467 1 0.281968 0.913297 0.171202
18468 1 0.310104 0.251588 0.1712
18469 1 0.324195 0.423202 0.146862
18470 1 0.352332 0.761788 0.146851
18471 1 0.338241 0.0901801 0.171197
18472 1 0.38046 0.100545 0.146839
18473 1 0.366377 0.429125 0.171199
18475 1 0.324195 0.923202 0.146862
18476 1 0.352332 0.261788 0.146851
18477 1 0.338241 0.59018 0.171197
18478 1 0.38046 0.600545 0.146839
18479 1 0.366377 0.929125 0.171199
18474 1 0.394508 0.768367 0.171207
18480 1 0.394508 0.268367 0.171207
18481 1 0.408583 0.439531 0.146848
18482 1 0.436708 0.77877 0.146873
18483 1 0.422637 0.107907 0.171226
18487 1 0.408583 0.939531 0.146848
18488 1 0.436708 0.27877 0.146873
18489 1 0.422637 0.607907 0.171226
18484 1 0.464839 0.118199 0.146896
18485 1 0.45077 0.447701 0.171248
18486 1 0.478905 0.787661 0.171261
18490 1 0.464839 0.618199 0.146896
18491 1 0.45077 0.947701 0.171248
18492 1 0.478905 0.287661 0.171261
18493 1 0.492971 0.457665 0.146904
18499 1 0.492971 0.957665 0.146904
18986 3 0.0989034 0.719086 0.19536
18987 3 0.0848298 0.0479766 0.219731
18988 3 0.127051 0.055272 0.19536
18989 3 0.112977 0.383973 0.219731
18992 3 0.0989034 0.219087 0.19536
18993 3 0.0848298 0.547976 0.219731
18994 3 0.127051 0.555272 0.19536
18995 3 0.112977 0.883974 0.219731
19537 3 0.0707563 0.376826 0.244102
19538 3 0.0989034 0.712614 0.244102
19540 1 0.127264 0.0489543 0.244359
19543 3 0.0707563 0.876827 0.244102
19544 3 0.0989034 0.212614 0.244102
19546 1 0.127264 0.548954 0.244359
18990 1 0.141311 0.721003 0.219986
18996 1 0.141311 0.221003 0.219986
18997 1 0.155162 0.39138 0.195476
18998 1 0.183395 0.728638 0.195509
18999 1 0.169385 0.0571502 0.219914
19003 1 0.155162 0.89138 0.195476
19004 1 0.183395 0.228638 0.195509
19005 1 0.169385 0.55715 0.219914
19549 1 0.155341 0.38549 0.244286
19550 1 0.183433 0.721972 0.244221
19555 1 0.155341 0.88549 0.244286
19556 1 0.183433 0.221972 0.244221
19000 1 0.211553 0.0660182 0.19553
19001 1 0.197466 0.393898 0.219843
19002 1 0.225608 0.731289 0.219852
19006 1 0.211553 0.566018 0.19553
19007 1 0.197466 0.893898 0.219843
19008 1 0.225608 0.231289 0.219852
19009 1 0.239715 0.403482 0.195536
19011 1 0.25375 0.0689594 0.219854
19015 1 0.239715 0.903482 0.195536
19017 1 0.25375 0.568959 0.219854
19552 1 0.211533 0.0588708 0.244185
19558 1 0.211533 0.558871 0.244185
19561 1 0.239658 0.396317 0.244181
19567 1 0.239658 0.896317 0.244181
19010 1 0.26786 0.741334 0.195534
19012 1 0.296001 0.0795077 0.19553
19013 1 0.281896 0.407048 0.219859
19014 1 0.310039 0.745603 0.219864
19016 1 0.26786 0.241334 0.195534
19018 1 0.296001 0.579508 0.19553
19019 1 0.281896 0.907048 0.219859
19020 1 0.310039 0.245603 0.219864
19562 1 0.267793 0.734229 0.244184
19564 1 0.295932 0.0726499 0.244189
19568 1 0.267793 0.234229 0.244184
19570 1 0.295932 0.57265 0.244189
19021 1 0.324143 0.418124 0.195536
19022 1 0.352284 0.757163 0.195542
19023 1 0.338183 0.084669 0.219875
19024 1 0.380422 0.0966208 0.195555
19025 1 0.366327 0.424257 0.219891
19027 1 0.324143 0.918124 0.195536
19028 1 0.352284 0.257163 0.195542
19029 1 0.338183 0.584669 0.219875
19030 1 0.380422 0.596621 0.195555
19031 1 0.366327 0.924257 0.219891
19573 1 0.324076 0.411645 0.2442
19574 1 0.352222 0.75126 0.244217
19576 1 0.38037 0.0915155 0.244242
19579 1 0.324076 0.911645 0.2442
19580 1 0.352222 0.25126 0.244217
19582 1 0.380371 0.591516 0.244242
19026 1 0.39447 0.764351 0.219914
19032 1 0.39447 0.264351 0.219914
19033 1 0.408559 0.436459 0.195574
19034 1 0.436696 0.776646 0.195597
19035 1 0.422614 0.104909 0.219939
19039 1 0.408559 0.936459 0.195574
19040 1 0.436696 0.276646 0.195597
19041 1 0.422614 0.604909 0.219939
19585 1 0.408521 0.432386 0.244272
19586 1 0.436672 0.773818 0.244301
19591 1 0.408521 0.932386 0.244272
19592 1 0.436672 0.273818 0.244301
19036 1 0.464834 0.117089 0.195615
19037 1 0.450758 0.445857 0.219962
19038 1 0.478903 0.787066 0.219975
19042 1 0.464834 0.617089 0.195615
19043 1 0.450758 0.945857 0.219962
19044 1 0.478903 0.287066 0.219975
19588 1 0.464824 0.115672 0.244322
19594 1 0.464824 0.615672 0.244322
19045 1 0.492975 0.457688 0.19562
19051 1 0.492975 0.957688 0.19562
19597 1 0.492977 0.457756 0.244329
19603 1 0.492977 0.957756 0.244329
19530 3 0.0566827 0.705665 0.268473
19536 3 0.0566827 0.205666 0.268473
20080 3 0.0426091 0.0345209 0.292845
20086 3 0.0426091 0.53452 0.292845
19539 3 0.0848298 0.041224 0.268473
19541 1 0.113126 0.377073 0.26859
19545 3 0.0848298 0.541224 0.268473
19547 1 0.113126 0.877073 0.26859
20089 3 0.0707563 0.369837 0.292845
20090 1 0.0990791 0.705341 0.292916
20092 1 0.127162 0.041188 0.29291
20095 3 0.0707563 0.869837 0.292845
20096 1 0.0990791 0.205341 0.292916
20098 1 0.127162 0.541188 0.29291
19542 1 0.14124 0.713455 0.26861
19548 1 0.14124 0.213455 0.26861
19551 1 0.169367 0.0498463 0.268588
19557 1 0.169367 0.549846 0.268588
20101 1 0.155288 0.377458 0.292923
20102 1 0.183397 0.713913 0.292902
20107 1 0.155288 0.877458 0.292923
20108 1 0.183397 0.213913 0.292902
19553 1 0.19747 0.386475 0.268546
19554 1 0.225579 0.723536 0.268523
19559 1 0.19747 0.886475 0.268546
19560 1 0.225579 0.223536 0.268523
19563 1 0.253699 0.061161 0.268516
19569 1 0.253699 0.561161 0.268516
20104 1 0.211504 0.0506746 0.292878
20110 1 0.211504 0.550675 0.292878
20113 1 0.239614 0.387924 0.292859
20119 1 0.239614 0.887924 0.292859
19565 1 0.281829 0.399334 0.268516
19566 1 0.309966 0.738136 0.268522
19571 1 0.281829 0.899334 0.268516
19572 1 0.309966 0.238136 0.268522
20114 1 0.267731 0.725751 0.29285
20116 1 0.295858 0.064231 0.292848
20120 1 0.267731 0.225751 0.29285
20122 1 0.295858 0.564231 0.292848
19575 1 0.33811 0.0776435 0.268536
20134 1 0.380297 0.584637 0.292902
19577 1 0.36626 0.417915 0.26856
20132 1 0.352141 0.243567 0.292873
19581 1 0.33811 0.577644 0.268536
20131 1 0.323995 0.903464 0.292855
19583 1 0.36626 0.917915 0.26856
20128 1 0.380297 0.0846372 0.292902
20126 1 0.352141 0.743567 0.292873
20125 1 0.323995 0.403464 0.292855
20144 1 0.436631 0.269779 0.29298
20143 1 0.408462 0.926724 0.29294
20138 1 0.436631 0.76978 0.29298
20137 1 0.408462 0.426724 0.29294
19578 1 0.394415 0.75898 0.268592
19584 1 0.394415 0.258981 0.268592
19587 1 0.422574 0.10082 0.268628
19593 1 0.422574 0.60082 0.268628
20146 1 0.464804 0.613597 0.293011
20140 1 0.464804 0.113597 0.293011
19589 1 0.450735 0.443316 0.268659
19590 1 0.478896 0.786252 0.268676
19595 1 0.450735 0.943316 0.268659
19596 1 0.478896 0.286252 0.268676
20149 1 0.492977 0.457839 0.293021
20155 1 0.492977 0.957839 0.293021
20640 1 0.0567656 0.191074 0.365869
20639 3 0.0285356 0.856016 0.365958
20638 3 0.0426091 0.527203 0.341587
20634 1 0.0567655 0.691074 0.365869
20633 3 0.0285356 0.356016 0.365958
20632 3 0.0426091 0.0272033 0.341587
20081 3 0.0285356 0.363421 0.317216
20082 3 0.0566827 0.698486 0.317216
20087 3 0.0285356 0.863421 0.317216
20088 3 0.0566827 0.198487 0.317216
20651 1 0.113122 0.8604 0.365978
20650 1 0.127196 0.5325 0.341614
20649 1 0.0850443 0.525265 0.365965
20648 1 0.0991329 0.196899 0.34162
20647 1 0.0710701 0.861428 0.341621
20645 1 0.113122 0.3604 0.365978
20644 1 0.127196 0.0325005 0.341614
20643 1 0.0850443 0.0252649 0.365965
20642 1 0.0991329 0.696899 0.34162
20641 1 0.0710701 0.361428 0.341621
20091 1 0.0851581 0.0334638 0.317272
20093 1 0.113152 0.368922 0.317249
20097 1 0.0851581 0.533464 0.317272
20099 1 0.113152 0.868922 0.317249
20661 1 0.169302 0.531636 0.365958
20660 1 0.183364 0.204621 0.341594
20659 1 0.155271 0.868402 0.341607
20655 1 0.169302 0.0316365 0.365958
20654 1 0.183364 0.704621 0.341594
20653 1 0.155271 0.368402 0.341607
20652 1 0.141209 0.195859 0.36597
20646 1 0.141209 0.695859 0.36597
20094 1 0.141235 0.704879 0.317257
20100 1 0.141235 0.204879 0.317257
20103 1 0.169329 0.0411546 0.317252
20109 1 0.169329 0.541155 0.317252
20673 1 0.253586 0.541173 0.365891
20671 1 0.23956 0.878116 0.341552
20667 1 0.253586 0.041173 0.365891
20665 1 0.23956 0.378116 0.341552
20664 1 0.22549 0.204206 0.365916
20663 1 0.197396 0.867731 0.365939
20662 1 0.211461 0.541153 0.341574
20658 1 0.22549 0.704206 0.365916
20657 1 0.197396 0.367731 0.365939
20656 1 0.211461 0.0411533 0.341574
20105 1 0.197431 0.37768 0.317235
20106 1 0.225533 0.714576 0.317213
20111 1 0.197431 0.87768 0.317235
20112 1 0.225533 0.214576 0.317213
20115 1 0.253641 0.0519857 0.317196
20121 1 0.253641 0.551986 0.317196
20676 1 0.309794 0.217209 0.365851
20675 1 0.281686 0.878781 0.365869
20674 1 0.295777 0.553903 0.341517
20672 1 0.267664 0.215652 0.341532
20670 1 0.309794 0.717209 0.365851
20669 1 0.281686 0.378781 0.365869
20668 1 0.295777 0.0539029 0.341517
20666 1 0.267664 0.715652 0.341532
20117 1 0.281757 0.390034 0.317184
20118 1 0.309882 0.728842 0.31718
20123 1 0.281757 0.890034 0.317184
20124 1 0.309882 0.228842 0.31718
20687 1 0.366053 0.897601 0.365839
20686 1 0.380195 0.574997 0.341536
20685 1 0.337914 0.556707 0.365839
20684 1 0.352038 0.233324 0.341515
20683 1 0.3239 0.893052 0.341511
20681 1 0.366053 0.397601 0.365839
20680 1 0.380195 0.0749976 0.341536
20679 1 0.337914 0.0567071 0.365839
20678 1 0.352038 0.733324 0.341515
20677 1 0.3239 0.393052 0.341511
20135 1 0.36617 0.909374 0.317206
20133 1 0.338019 0.568562 0.317187
20129 1 0.36617 0.409374 0.317206
20127 1 0.338019 0.068562 0.317187
20697 1 0.422406 0.585328 0.365901
20696 1 0.436564 0.263455 0.341624
20695 1 0.408371 0.918335 0.341574
20691 1 0.422406 0.0853281 0.365901
20690 1 0.436564 0.763455 0.341624
20689 1 0.408371 0.418335 0.341574
20688 1 0.394215 0.240321 0.365859
20682 1 0.394215 0.740321 0.365859
20145 1 0.422511 0.594836 0.317284
20139 1 0.422511 0.0948354 0.317284
20136 1 0.394334 0.25144 0.31724
20130 1 0.394334 0.75144 0.31724
20700 1 0.478855 0.28261 0.365997
20699 1 0.450622 0.9329 0.365958
20698 1 0.464767 0.610176 0.341669
20694 1 0.478855 0.78261 0.365997
20693 1 0.450622 0.432899 0.365958
20692 1 0.464767 0.110176 0.341669
20148 1 0.478882 0.284953 0.317354
20147 1 0.450695 0.939452 0.317328
20142 1 0.478882 0.784952 0.317354
20141 1 0.450695 0.439452 0.317328
20707 1 0.492975 0.957874 0.341685
20701 1 0.492975 0.457874 0.341685
21742 1 0.0428977 0.5106 0.439146
21740 3 0.014462 0.17717 0.439072
21736 1 0.0428977 0.0106005 0.439146
21734 3 0.014462 0.677169 0.439072
21192 1 0.0570124 0.182132 0.414743
21191 3 0.0285356 0.848186 0.414701
21190 3 0.0426091 0.519375 0.390329
21189 3 0.00038843 0.514027 0.414701
21188 3 0.014462 0.184951 0.390329
21186 1 0.0570124 0.682132 0.414743
21185 3 0.0285356 0.348185 0.414701
21184 3 0.0426091 0.0193751 0.390329
21183 3 0.00038843 0.0140277 0.414701
21182 3 0.014462 0.684951 0.390329
21754 1 0.127172 0.513429 0.439048
21752 1 0.0990917 0.178938 0.439052
21751 1 0.071013 0.844736 0.439081
21748 1 0.127172 0.0134285 0.439048
21746 1 0.0990917 0.678938 0.439052
21745 1 0.071013 0.344736 0.439081
21203 1 0.1131 0.851098 0.414681
21202 1 0.12714 0.523491 0.390328
21201 1 0.0850062 0.516404 0.414669
21200 1 0.099022 0.188503 0.390316
21199 1 0.07091 0.8538 0.390298
21197 1 0.1131 0.351098 0.414681
21196 1 0.12714 0.0234915 0.390328
21195 1 0.0850062 0.0164043 0.414669
21194 1 0.099022 0.688503 0.390316
21193 1 0.07091 0.3538 0.390298
21764 1 0.183359 0.183038 0.439032
21763 1 0.155266 0.848142 0.439044
21758 1 0.183359 0.683038 0.439032
21757 1 0.155266 0.348142 0.439044
21213 1 0.169295 0.521185 0.414675
21212 1 0.183339 0.194397 0.390307
21211 1 0.155243 0.858799 0.390322
21207 1 0.169295 0.0211847 0.414675
21206 1 0.183339 0.694397 0.390307
21205 1 0.155243 0.358799 0.390322
21204 1 0.141197 0.186042 0.414683
21198 1 0.141197 0.686042 0.414683
21775 1 0.239537 0.853552 0.438992
21769 1 0.239537 0.353552 0.438992
21766 1 0.21145 0.518148 0.439014
21760 1 0.21145 0.0181483 0.439014
21225 1 0.253566 0.528474 0.414611
21223 1 0.239524 0.866694 0.390261
21219 1 0.253566 0.0284736 0.414611
21217 1 0.239524 0.366694 0.390261
21216 1 0.225479 0.192323 0.414637
21215 1 0.197389 0.856594 0.414659
21214 1 0.211432 0.530341 0.390286
21210 1 0.225479 0.692323 0.414637
21209 1 0.197389 0.356594 0.414659
21208 1 0.211432 0.0303406 0.390286
21778 1 0.295702 0.525761 0.438936
21776 1 0.267621 0.189369 0.438966
21772 1 0.295702 0.0257616 0.438936
21770 1 0.267621 0.689369 0.438966
21228 1 0.309738 0.202703 0.414552
21227 1 0.281652 0.865201 0.414583
21226 1 0.29571 0.541203 0.390209
21224 1 0.267615 0.203591 0.390235
21222 1 0.309738 0.702703 0.414552
21221 1 0.281652 0.365201 0.414583
21220 1 0.29571 0.0412032 0.390209
21218 1 0.267615 0.703591 0.390235
21790 1 0.379937 0.541307 0.438826
21788 1 0.351856 0.201274 0.438866
21787 1 0.323779 0.862948 0.438903
21784 1 0.379937 0.0413071 0.438826
21782 1 0.351856 0.701274 0.438866
21781 1 0.323779 0.362948 0.438903
21239 1 0.365931 0.881299 0.414493
21238 1 0.380059 0.561136 0.390158
21237 1 0.337829 0.541259 0.414521
21236 1 0.351924 0.219578 0.390165
21235 1 0.323811 0.879756 0.390184
21233 1 0.365931 0.381299 0.414493
21232 1 0.380059 0.0611362 0.390158
21231 1 0.337829 0.0412591 0.414521
21230 1 0.351924 0.719578 0.390165
21229 1 0.323811 0.379756 0.390184
21800 1 0.436186 0.23183 0.43874
21799 1 0.408036 0.884037 0.438785
21794 1 0.436186 0.73183 0.43874
21793 1 0.408036 0.384038 0.438785
21249 1 0.422221 0.569156 0.414471
21248 1 0.436438 0.252543 0.390217
21247 1 0.408226 0.905135 0.390173
21243 1 0.422221 0.0691554 0.414471
21242 1 0.436438 0.752544 0.390217
21241 1 0.408226 0.405135 0.390173
21240 1 0.394055 0.223513 0.414473
21234 1 0.394055 0.723512 0.414473
21802 1 0.464499 0.589506 0.438778
21796 1 0.464499 0.0895068 0.438778
21252 1 0.478798 0.277841 0.414579
21251 1 0.450467 0.92032 0.414512
21250 1 0.464695 0.603889 0.390279
21246 1 0.478798 0.77784 0.414579
21245 1 0.450467 0.420319 0.414512
21244 1 0.464695 0.103889 0.390279
21811 1 0.492972 0.958037 0.438863
21805 1 0.492972 0.458038 0.438863
21259 1 0.492973 0.957927 0.390304
21253 1 0.492973 0.457928 0.390304
21744 1 0.0570527 0.17315 0.46347
21743 3 0.0285356 0.840054 0.463443
21741 3 0.00038843 0.506341 0.463443
21738 1 0.0570527 0.67315 0.46347
21737 3 0.0285356 0.340053 0.463443
21735 3 0.00038843 0.00634105 0.463443
22286 3 0.014462 0.669181 0.487814
22288 1 0.042878 0.00185146 0.487813
22292 3 0.014462 0.169182 0.487814
22294 1 0.042878 0.501851 0.487813
21755 1 0.113161 0.841101 0.463425
21753 1 0.0850881 0.507028 0.463441
21749 1 0.113161 0.341101 0.463425
21747 1 0.0850881 0.00702786 0.463441
22297 1 0.0710393 0.335572 0.487814
22298 1 0.0991386 0.669202 0.487806
22300 1 0.127225 0.00295919 0.487796
22303 1 0.0710393 0.835572 0.487814
22304 1 0.0991386 0.169202 0.487806
22306 1 0.127225 0.502959 0.487796
21765 1 0.169338 0.509757 0.463408
21759 1 0.169338 0.00975681 0.463408
21756 1 0.141247 0.175361 0.463418
21750 1 0.141247 0.675361 0.463418
22309 1 0.15532 0.336855 0.487785
22310 1 0.183417 0.670814 0.487771
22315 1 0.15532 0.836855 0.487785
22316 1 0.183417 0.170814 0.487771
21777 1 0.25361 0.513882 0.463352
21771 1 0.25361 0.0138818 0.463352
21768 1 0.225523 0.178959 0.463374
21767 1 0.197431 0.844277 0.463393
21762 1 0.225523 0.678959 0.463374
21761 1 0.197431 0.344277 0.463393
22312 1 0.211514 0.00482249 0.487755
22318 1 0.211514 0.504822 0.487755
22321 1 0.23961 0.338912 0.487736
22327 1 0.23961 0.838912 0.487736
21780 1 0.309771 0.184939 0.463299
21779 1 0.281693 0.84916 0.463327
21774 1 0.309771 0.684939 0.463299
21773 1 0.281693 0.34916 0.463327
22322 1 0.267701 0.673136 0.487716
22324 1 0.295789 0.00756228 0.487695
22328 1 0.267701 0.173136 0.487716
22330 1 0.295789 0.507562 0.487695
21791 1 0.365901 0.85911 0.463225
21789 1 0.337841 0.52145 0.463266
21785 1 0.365901 0.35911 0.463225
21783 1 0.337841 0.0214499 0.463266
22333 1 0.323869 0.342288 0.487672
22334 1 0.351936 0.677512 0.487645
22336 1 0.379982 0.0135333 0.487613
22339 1 0.323869 0.842287 0.487672
22340 1 0.351936 0.177512 0.487645
22342 1 0.379982 0.513533 0.487613
21801 1 0.421997 0.541364 0.463103
21795 1 0.421997 0.0413633 0.463103
21792 1 0.393951 0.19863 0.463175
21786 1 0.393951 0.698629 0.463175
22345 1 0.407987 0.350915 0.48757
22346 1 0.435951 0.690943 0.487505
22351 1 0.407987 0.850915 0.48757
22352 1 0.435952 0.190942 0.487505
21804 1 0.478599 0.26246 0.463057
21803 1 0.450112 0.891878 0.462984
21798 1 0.478599 0.76246 0.463057
21797 1 0.450112 0.391877 0.462984
22348 1 0.464004 0.0414376 0.487349
22354 1 0.464004 0.541437 0.487349
22357 1 0.492972 0.458192 0.487398
22363 1 0.492972 0.958191 0.487398
22287 3 0.00038843 0.998534 0.512186
22289 3 0.0285356 0.331779 0.512186
22290 1 0.0570621 0.664279 0.512162
22293 3 0.00038843 0.498534 0.512186
22295 3 0.0285356 0.831779 0.512186
22296 1 0.0570621 0.164279 0.512162
22838 3 0.014462 0.661142 0.536557
22839 3 0.00038843 0.990756 0.560928
22840 1 0.0429085 0.993476 0.536491
22841 3 0.0285356 0.323538 0.560928
22842 1 0.0570127 0.655836 0.560926
22844 3 0.014462 0.161143 0.536557
22845 3 0.00038843 0.490755 0.560928
22846 1 0.0429085 0.493476 0.536491
22847 3 0.0285356 0.823538 0.560928
22848 1 0.0570127 0.155836 0.560926
22299 1 0.0851074 0.997538 0.51218
22301 1 0.113196 0.330946 0.512174
22305 1 0.0851074 0.497538 0.51218
22307 1 0.113196 0.830946 0.512174
22849 1 0.0710359 0.326453 0.536554
22850 1 0.0991495 0.659434 0.536548
22851 1 0.0850825 0.98834 0.56092
22852 1 0.127257 0.992437 0.536536
22853 1 0.11321 0.320966 0.560904
22855 1 0.0710359 0.826453 0.536554
22856 1 0.0991495 0.159434 0.536548
22857 1 0.0850825 0.48834 0.56092
22858 1 0.127257 0.492437 0.536536
22859 1 0.11321 0.820966 0.560904
22302 1 0.141295 0.664401 0.512162
22308 1 0.141295 0.164401 0.512162
22311 1 0.169399 0.997846 0.512148
22317 1 0.169399 0.497846 0.512148
22854 1 0.141331 0.653549 0.560893
22860 1 0.141331 0.153549 0.560893
22861 1 0.15537 0.325422 0.536523
22862 1 0.183483 0.658303 0.536509
22863 1 0.169451 0.985992 0.560881
22867 1 0.15537 0.825422 0.536523
22868 1 0.183483 0.158303 0.536509
22869 1 0.169451 0.485992 0.560881
22313 1 0.197503 0.331251 0.512133
22314 1 0.225608 0.664604 0.512118
22319 1 0.197503 0.831251 0.512133
22320 1 0.225608 0.164604 0.512118
22323 1 0.253711 0.997906 0.512101
22329 1 0.253711 0.497906 0.512101
22864 1 0.211597 0.991039 0.536495
22865 1 0.197573 0.31824 0.560868
22866 1 0.225695 0.650212 0.560855
22870 1 0.211597 0.491039 0.536495
22871 1 0.197573 0.81824 0.560868
22872 1 0.225695 0.150212 0.560855
22873 1 0.239711 0.32359 0.536481
22875 1 0.253819 0.981829 0.560844
22879 1 0.239711 0.82359 0.536481
22881 1 0.253819 0.481829 0.560844
22325 1 0.281813 0.331149 0.512085
22326 1 0.30991 0.664309 0.512071
22331 1 0.281813 0.831149 0.512085
22332 1 0.30991 0.164309 0.512071
22874 1 0.267825 0.655897 0.536468
22876 1 0.295938 0.987848 0.536458
22877 1 0.281943 0.312942 0.560837
22878 1 0.310067 0.643349 0.560838
22880 1 0.267825 0.155897 0.536468
22882 1 0.295938 0.487848 0.536458
22883 1 0.281943 0.812943 0.560837
22884 1 0.310067 0.143349 0.560838
22335 1 0.338001 0.997363 0.512058
22337 1 0.36608 0.330194 0.512049
22341 1 0.338001 0.497363 0.512058
22343 1 0.36608 0.830194 0.512049
22885 1 0.32405 0.31929 0.536454
22886 1 0.352158 0.649901 0.536459
22887 1 0.338189 0.972696 0.560849
22888 1 0.380262 0.978991 0.536482
22889 1 0.366309 0.300337 0.560881
22891 1 0.32405 0.81929 0.536454
22892 1 0.352158 0.149901 0.536459
22893 1 0.338189 0.472696 0.560849
22894 1 0.380262 0.478991 0.536482
22895 1 0.366309 0.800337 0.560881
22338 1 0.394141 0.662485 0.512048
22344 1 0.394141 0.162485 0.512047
22347 1 0.422178 0.993385 0.512063
22353 1 0.422178 0.493385 0.512063
22890 1 0.394424 0.625134 0.560951
22896 1 0.394424 0.125134 0.560951
22897 1 0.408365 0.305153 0.536541
22898 1 0.436489 0.625107 0.53667
22899 1 0.422538 0.945089 0.561085
22903 1 0.408365 0.805152 0.536541
22904 1 0.436489 0.125108 0.53667
22905 1 0.422538 0.445089 0.561085
22349 1 0.450261 0.320547 0.51213
22350 1 0.478534 0.625062 0.5124
22355 1 0.450261 0.820546 0.51213
22356 1 0.478534 0.125062 0.5124
22900 1 0.464631 0.929635 0.537016
22901 1 0.450648 0.256825 0.561365
22902 1 0.478807 0.559226 0.561719
22906 1 0.464631 0.429634 0.537016
22907 1 0.450648 0.756824 0.561365
22908 1 0.478807 0.0592278 0.561719
22909 1 0.492968 0.208701 0.537507
22915 1 0.492968 0.708703 0.537507
23390 3 0.014462 0.653214 0.585299
23392 1 0.0426779 0.986283 0.585355
23393 3 0.0285356 0.315502 0.609671
23394 1 0.0570276 0.646837 0.609619
23396 3 0.014462 0.153215 0.585299
23398 1 0.0426779 0.486283 0.585355
23399 3 0.0285356 0.815502 0.609671
23400 1 0.0570276 0.146837 0.609619
23401 1 0.0710382 0.317766 0.585279
23402 1 0.0991639 0.649964 0.585264
23403 1 0.0851371 0.979218 0.609627
23404 1 0.127285 0.982172 0.58526
23405 1 0.113243 0.31127 0.609626
23407 1 0.0710382 0.817766 0.585279
23408 1 0.0991639 0.149964 0.585264
23409 1 0.0851371 0.479218 0.609627
23410 1 0.127285 0.482172 0.58526
23411 1 0.113243 0.81127 0.609626
23406 1 0.141355 0.643117 0.609621
23412 1 0.141355 0.143117 0.609621
23413 1 0.15541 0.31428 0.585251
23414 1 0.183535 0.646154 0.585239
23415 1 0.169483 0.97473 0.609609
23419 1 0.15541 0.81428 0.585251
23420 1 0.183535 0.146154 0.585239
23421 1 0.169483 0.47473 0.609609
23416 1 0.211663 0.977713 0.585226
23417 1 0.197614 0.306001 0.609596
23418 1 0.225748 0.636839 0.609585
23422 1 0.211663 0.477713 0.585226
23423 1 0.197614 0.806001 0.609596
23424 1 0.225748 0.136839 0.609585
23425 1 0.239793 0.308854 0.585216
23427 1 0.253883 0.967111 0.609579
23431 1 0.239793 0.808854 0.585216
23433 1 0.253883 0.467111 0.609579
23426 1 0.267924 0.639437 0.58521
23428 1 0.296054 0.969251 0.585212
23429 1 0.282017 0.296633 0.609581
23430 1 0.310149 0.625154 0.609596
23432 1 0.267924 0.139437 0.58521
23434 1 0.296054 0.469252 0.585212
23435 1 0.282017 0.796633 0.609581
23436 1 0.310149 0.125154 0.609596
23437 1 0.324183 0.297988 0.585227
23438 1 0.352308 0.625147 0.585262
23439 1 0.338275 0.952311 0.609631
23440 1 0.380427 0.949949 0.585329
23441 1 0.366395 0.277597 0.609692
23443 1 0.324183 0.797988 0.585227
23444 1 0.352308 0.125147 0.585262
23445 1 0.338275 0.452311 0.609631
23446 1 0.380427 0.449948 0.585329
23447 1 0.366395 0.777597 0.609692
23442 1 0.394506 0.600376 0.609793
23448 1 0.394506 0.100376 0.609793
23449 1 0.408538 0.271273 0.585447
23450 1 0.436643 0.587749 0.585648
23451 1 0.422612 0.920058 0.609944
23455 1 0.408538 0.771274 0.585447
23456 1 0.436643 0.0877484 0.585648
23457 1 0.422612 0.420058 0.609944
23452 1 0.464769 0.899281 0.585899
23453 1 0.450729 0.236685 0.610126
23454 1 0.478882 0.551555 0.61025
23458 1 0.464769 0.399283 0.585899
23459 1 0.450729 0.736686 0.610126
23460 1 0.478882 0.0515538 0.61025
23461 1 0.492967 0.208795 0.586003
23467 1 0.492967 0.708792 0.586003
23942 3 0.014462 0.645547 0.634042
23944 3 0.0426091 0.977636 0.634042
23945 3 0.0285356 0.307819 0.658413
23946 3 0.0566827 0.639639 0.658413
23948 3 0.014462 0.145547 0.634042
23950 3 0.0426091 0.477636 0.634042
23951 3 0.0285356 0.807819 0.658413
23952 3 0.0566827 0.139639 0.658413
24496 3 0.0426091 0.969989 0.682784
24502 3 0.0426091 0.469989 0.682784
23953 1 0.0711219 0.309167 0.633978
23954 1 0.0991635 0.640901 0.634
23955 1 0.0850549 0.971263 0.658339
23956 1 0.127286 0.972538 0.633991
23957 1 0.113179 0.302575 0.658357
23959 1 0.0711219 0.809167 0.633978
23960 1 0.0991635 0.140901 0.634
23961 1 0.0850549 0.471263 0.658339
23962 1 0.127286 0.472538 0.633991
23963 1 0.113179 0.802575 0.658357
24505 1 0.0707996 0.301536 0.68277
24506 1 0.0991169 0.632869 0.68269
24508 1 0.127232 0.963922 0.682708
24511 1 0.0707996 0.801536 0.68277
24512 1 0.0991169 0.132869 0.68269
24514 1 0.127232 0.463922 0.682708
23958 1 0.141328 0.633715 0.658345
23964 1 0.141328 0.133715 0.658345
23965 1 0.155413 0.303932 0.633979
23966 1 0.183549 0.634995 0.633964
23967 1 0.16947 0.964603 0.658332
23971 1 0.155413 0.803932 0.633979
23972 1 0.183549 0.134995 0.633964
23973 1 0.16947 0.464603 0.658332
24517 1 0.155384 0.294706 0.682695
24518 1 0.183529 0.625175 0.682681
24523 1 0.155384 0.794706 0.682695
24524 1 0.183529 0.125175 0.682681
23968 1 0.211687 0.965644 0.633952
23969 1 0.197613 0.295132 0.658317
23970 1 0.225756 0.625176 0.658308
23974 1 0.211687 0.465644 0.633952
23975 1 0.197613 0.795132 0.658317
23976 1 0.225756 0.125176 0.658308
23977 1 0.239826 0.295754 0.633945
23979 1 0.253896 0.954589 0.658308
23983 1 0.239826 0.795754 0.633945
23985 1 0.253896 0.454589 0.658308
24520 1 0.211676 0.955221 0.68267
24526 1 0.211676 0.455221 0.68267
24529 1 0.23982 0.284704 0.682667
24535 1 0.23982 0.784704 0.682667
23978 1 0.267963 0.625167 0.633946
23980 1 0.296096 0.953688 0.633961
23981 1 0.282031 0.283223 0.658321
23982 1 0.310161 0.610885 0.658349
23984 1 0.267963 0.125167 0.633946
23986 1 0.296096 0.453688 0.633961
23987 1 0.282031 0.783223 0.658321
23988 1 0.310161 0.110885 0.658349
24530 1 0.267958 0.613502 0.682678
24532 1 0.296089 0.941478 0.682702
24536 1 0.267958 0.113502 0.682678
24538 1 0.296089 0.441478 0.682702
23989 1 0.324224 0.281058 0.633992
23990 1 0.352344 0.60695 0.634048
23991 1 0.338283 0.937367 0.658398
23992 1 0.380457 0.930992 0.634133
23993 1 0.366397 0.262443 0.658471
23995 1 0.324224 0.781058 0.633992
23996 1 0.352344 0.106949 0.634048
23997 1 0.338283 0.437367 0.658398
23998 1 0.380457 0.430993 0.634133
23999 1 0.366397 0.762443 0.65847
24541 1 0.324214 0.268491 0.682745
24542 1 0.352333 0.594406 0.682807
24544 1 0.380447 0.919133 0.682888
24547 1 0.324214 0.768491 0.682745
24548 1 0.352333 0.0944058 0.682807
24550 1 0.380447 0.419133 0.682888
23994 1 0.394508 0.58596 0.658568