ITEM: TIMESTEP
37
ITEM: NUMBER OF ATOMS
2350
ITEM: BOX BOUNDS ss pp ss
-4.1117772832000000e+01 4.1700535187000000e+01
-4.1208122699999999e-01 4.5329187729999996e+00
-4.1838085174000000e+01 4.0996900377999999e+01
ITEM: ATOMS id type xs ys zs
17356 3 0.295933 0.092031 0.0491324
17362 3 0.295933 0.59203 0.0491324
16815 3 0.338154 0.0996667 0.0247612
16817 3 0.366301 0.437275 0.0247612
16821 3 0.338154 0.599666 0.0247612
16823 3 0.366301 0.937276 0.0247612
17365 3 0.32408 0.429571 0.0491324
17366 3 0.352228 0.767287 0.0491324
17368 3 0.380375 0.105162 0.0491324
17371 3 0.32408 0.929572 0.0491324
17372 3 0.352228 0.267288 0.0491324
17374 3 0.380375 0.605161 0.0491324
16818 3 0.394448 0.775013 0.0247612
16824 3 0.394448 0.275014 0.0247612
16827 3 0.422595 0.112857 0.0247612
16833 3 0.422595 0.612856 0.0247612
17377 3 0.408522 0.443171 0.0491324
17378 1 0.436771 0.78132 0.0492052
17383 3 0.408522 0.943171 0.0491324
17384 1 0.436771 0.28132 0.0492052
16828 3 0.464816 0.120015 0.00038994
16829 3 0.450743 0.45078 0.0247612
16830 3 0.47889 0.788754 0.0247612
16834 3 0.464816 0.620015 0.00038994
16835 3 0.450743 0.95078 0.0247612
16836 3 0.47889 0.288755 0.0247612
17380 1 0.464902 0.120615 0.0494932
17386 1 0.464902 0.620615 0.0494932
16837 3 0.492963 0.457779 0.00038994
16843 3 0.492963 0.957779 0.00038994
17389 1 0.492956 0.457865 0.0496426
17395 1 0.492956 0.957865 0.0496425
17895 3 0.169271 0.0687295 0.122246
17901 3 0.169271 0.568729 0.122246
17355 3 0.253713 0.0842316 0.0735036
17361 3 0.253713 0.584231 0.0735036
17896 3 0.211492 0.0764149 0.0978748
17897 3 0.197418 0.405568 0.122246
17898 3 0.225565 0.742667 0.122246
17902 3 0.211492 0.576414 0.0978748
17903 3 0.197418 0.905569 0.122246
17904 3 0.225565 0.242667 0.122246
17905 3 0.239639 0.41356 0.0978748
17907 1 0.253849 0.0808952 0.122478
17911 3 0.239639 0.913561 0.0978748
17913 1 0.253849 0.580895 0.122478
17357 3 0.28186 0.421616 0.0735036
17358 3 0.310007 0.759217 0.0735036
17363 3 0.28186 0.921616 0.0735036
17364 3 0.310007 0.259217 0.0735036
17906 3 0.267786 0.750952 0.0978748
17908 1 0.296059 0.0895286 0.0981212
17909 1 0.282037 0.418607 0.12257
17910 1 0.310132 0.756436 0.122516
17912 3 0.267786 0.250952 0.0978748
17914 1 0.296059 0.589529 0.0981212
17915 1 0.282037 0.918607 0.12257
17916 1 0.310132 0.256436 0.122516
17367 1 0.338227 0.0977768 0.0738114
17369 1 0.366412 0.43549 0.0738463
17373 1 0.338227 0.597777 0.0738114
17375 1 0.366412 0.93549 0.0738463
17917 1 0.324235 0.427338 0.0982375
17918 1 0.352339 0.765282 0.0981568
17919 1 0.338274 0.0946624 0.122525
17920 1 0.380475 0.103524 0.0980995
17921 1 0.366406 0.432972 0.122491
17923 1 0.324235 0.927338 0.0982374
17924 1 0.352339 0.265282 0.0981568
17925 1 0.338274 0.594662 0.122525
17926 1 0.380475 0.603524 0.0980995
17927 1 0.366406 0.932972 0.122491
17370 1 0.394511 0.773376 0.0737115
17376 1 0.394511 0.273376 0.0737115
17379 1 0.422661 0.111824 0.0736659
17385 1 0.422661 0.611824 0.0736659
17922 1 0.394526 0.771559 0.122455
17928 1 0.394526 0.271559 0.122455
17929 1 0.408589 0.441852 0.0980412
17930 1 0.436691 0.780411 0.0980872
17931 1 0.422632 0.110232 0.122457
17935 1 0.408589 0.941852 0.0980412
17936 1 0.436691 0.280411 0.0980872
17937 1 0.422632 0.610232 0.122457
17381 1 0.450797 0.450552 0.0738031
17382 1 0.4789 0.788869 0.0739026
17387 1 0.450797 0.950552 0.0738031
17388 1 0.4789 0.288869 0.0739026
17932 1 0.464816 0.119184 0.0981993
17933 1 0.450746 0.449145 0.12251
17934 1 0.478882 0.78829 0.122564
17938 1 0.464816 0.619184 0.0981993
17939 1 0.450746 0.949145 0.12251
17940 1 0.478882 0.28829 0.122564
17941 1 0.492952 0.457905 0.098251
17947 1 0.492952 0.957905 0.098251
18438 3 0.141124 0.726721 0.170988
18444 3 0.141124 0.226721 0.170988
18445 3 0.155198 0.397794 0.146617
18446 3 0.183345 0.734537 0.146617
18447 3 0.169271 0.0633363 0.170988
18451 3 0.155198 0.897795 0.146617
18452 3 0.183345 0.234538 0.146617
18453 3 0.169271 0.563336 0.170988
18448 1 0.2117 0.0721131 0.14683
18449 1 0.197619 0.400564 0.171254
18450 1 0.225701 0.737974 0.171206
18454 1 0.2117 0.572113 0.14683
18455 1 0.197619 0.900564 0.171254
18456 1 0.225701 0.237974 0.171206
18457 1 0.239847 0.409587 0.146923
18459 1 0.253838 0.0757232 0.171212
18463 1 0.239847 0.909587 0.146923
18465 1 0.253838 0.575723 0.171212
18458 1 0.267928 0.747235 0.146858
18460 1 0.296059 0.0852659 0.146868
18461 1 0.281964 0.413559 0.171201
18462 1 0.310099 0.751824 0.171199
18464 1 0.267928 0.247235 0.146858
18466 1 0.296059 0.585266 0.146868
18467 1 0.281964 0.913559 0.171201
18468 1 0.310099 0.251824 0.171199
18469 1 0.324189 0.423412 0.146862
18470 1 0.352325 0.761969 0.146851
18471 1 0.338235 0.090403 0.171195
18472 1 0.380453 0.100714 0.146833
18473 1 0.366371 0.429338 0.171195
18475 1 0.324189 0.923412 0.146862
18476 1 0.352325 0.261969 0.146851
18477 1 0.338235 0.590403 0.171195
18478 1 0.380453 0.600714 0.146833
18479 1 0.366371 0.929338 0.171195
18474 1 0.394501 0.768557 0.171198
18480 1 0.394501 0.268557 0.171198
18481 1 0.408572 0.439659 0.146832
18482 1 0.436689 0.778817 0.146857
18483 1 0.422626 0.108042 0.171214
18487 1 0.408572 0.939659 0.146832
18488 1 0.436689 0.278817 0.146857
18489 1 0.422626 0.608042 0.171214
18484 1 0.464817 0.118257 0.146896
18485 1 0.450755 0.447814 0.171241
18486 1 0.478891 0.787838 0.171262
18490 1 0.464817 0.618257 0.146896
18491 1 0.450755 0.947814 0.171241
18492 1 0.478891 0.287838 0.171262
18493 1 0.492958 0.457886 0.146916
18499 1 0.492958 0.957886 0.146916
18986 3 0.0989034 0.71934 0.19536
18987 3 0.0848298 0.0482424 0.219731
18988 3 0.127051 0.0555296 0.19536
18989 3 0.112977 0.384245 0.219731
18992 3 0.0989034 0.21934 0.19536
18993 3 0.0848298 0.548242 0.219731
18994 3 0.127051 0.555529 0.19536
18995 3 0.112977 0.884246 0.219731
19537 3 0.0707563 0.377103 0.244102
19538 3 0.0989034 0.712898 0.244102
19540 1 0.127263 0.0492564 0.244358
19543 3 0.0707563 0.877103 0.244102
19544 3 0.0989034 0.212899 0.244102
19546 1 0.127263 0.549256 0.244358
18990 1 0.14131 0.721282 0.219986
18996 1 0.14131 0.221282 0.219986
18997 1 0.155162 0.391637 0.195476
18998 1 0.183394 0.728891 0.19551
18999 1 0.169385 0.0574298 0.219914
19003 1 0.155162 0.891637 0.195476
19004 1 0.183394 0.228891 0.19551
19005 1 0.169385 0.55743 0.219914
19549 1 0.155341 0.385807 0.244284
19550 1 0.183434 0.722302 0.244218
19555 1 0.155341 0.885807 0.244284
19556 1 0.183434 0.222302 0.244218
19000 1 0.211551 0.0662864 0.195529
19001 1 0.197466 0.394188 0.219841
19002 1 0.225608 0.731589 0.219849
19006 1 0.211551 0.566286 0.195529
19007 1 0.197466 0.894188 0.219841
19008 1 0.225608 0.231589 0.219849
19009 1 0.239713 0.403773 0.195533
19011 1 0.253749 0.069267 0.219851
19015 1 0.239713 0.903773 0.195533
19017 1 0.253749 0.569267 0.219851
19552 1 0.211534 0.0592074 0.244182
19558 1 0.211534 0.559207 0.244182
19561 1 0.239659 0.396642 0.244177
19567 1 0.239659 0.896642 0.244177
19010 1 0.267857 0.741628 0.195531
19012 1 0.295998 0.0797779 0.195528
19013 1 0.281894 0.407349 0.219855
19014 1 0.310037 0.745896 0.219859
19016 1 0.267857 0.241628 0.195531
19018 1 0.295998 0.579778 0.195528
19019 1 0.281894 0.907349 0.219855
19020 1 0.310037 0.245896 0.219859
19562 1 0.267794 0.734551 0.244179
19564 1 0.295933 0.0729716 0.244183
19568 1 0.267794 0.234551 0.244179
19570 1 0.295933 0.572972 0.244183
19021 1 0.32414 0.418381 0.195532
19022 1 0.352281 0.757421 0.195538
19023 1 0.338181 0.0849576 0.219869
19024 1 0.380419 0.096862 0.195548
19025 1 0.366326 0.424535 0.219884
19027 1 0.32414 0.918381 0.195532
19028 1 0.352281 0.257421 0.195538
19029 1 0.338181 0.584958 0.219869
19030 1 0.380419 0.596862 0.195548
19031 1 0.366326 0.924535 0.219884
19573 1 0.324077 0.41196 0.244192
19574 1 0.352223 0.751561 0.244209
19576 1 0.380371 0.0918002 0.244233
19579 1 0.324077 0.91196 0.244192
19580 1 0.352223 0.251561 0.244209
19582 1 0.380371 0.5918 0.244233
19026 1 0.394468 0.764606 0.219906
19032 1 0.394468 0.264606 0.219906
19033 1 0.408553 0.436668 0.195566
19034 1 0.436687 0.776822 0.195589
19035 1 0.42261 0.105141 0.219932
19039 1 0.408553 0.936668 0.195566
19040 1 0.436687 0.276822 0.195589
19041 1 0.42261 0.605141 0.219932
19585 1 0.408521 0.432655 0.244263
19586 1 0.436671 0.774066 0.244294
19591 1 0.408521 0.932655 0.244263
19592 1 0.436671 0.274066 0.244294
19036 1 0.464825 0.117279 0.195611
19037 1 0.450753 0.446075 0.219956
19038 1 0.478898 0.787288 0.219972
19042 1 0.464825 0.617279 0.195611
19043 1 0.450753 0.946075 0.219956
19044 1 0.478898 0.287288 0.219972
19588 1 0.464822 0.115904 0.244317
19594 1 0.464822 0.615904 0.244317
19045 1 0.492967 0.457918 0.19562
19051 1 0.492967 0.957918 0.19562
19597 1 0.492975 0.457978 0.244325
19603 1 0.492975 0.957978 0.244325
19530 3 0.0566827 0.705951 0.268473
19536 3 0.0566827 0.205951 0.268473
20080 3 0.0426091 0.0348136 0.292845
20086 3 0.0426091 0.534813 0.292845
19539 3 0.0848298 0.0415198 0.268473
19541 1 0.113126 0.377387 0.26859
19545 3 0.0848298 0.541519 0.268473
19547 1 0.113126 0.877387 0.26859
20089 3 0.0707563 0.370141 0.292845
20090 1 0.0990795 0.705666 0.292915
20092 1 0.127163 0.0415367 0.292908
20095 3 0.0707563 0.870142 0.292845
20096 1 0.0990795 0.205666 0.292915
20098 1 0.127163 0.541537 0.292908
19542 1 0.14124 0.713794 0.268608
19548 1 0.14124 0.213794 0.268608
19551 1 0.169368 0.0502089 0.268585
19557 1 0.169368 0.550209 0.268585
20101 1 0.155289 0.377833 0.292919
20102 1 0.1834 0.714306 0.292897
20107 1 0.155289 0.877833 0.292919
20108 1 0.1834 0.214306 0.292897
19553 1 0.197471 0.386852 0.268541
19554 1 0.225581 0.723904 0.268517
19559 1 0.197471 0.886852 0.268541
19560 1 0.225581 0.223904 0.268517
19563 1 0.253702 0.0615063 0.268509
19569 1 0.253702 0.561506 0.268509
20104 1 0.211508 0.0510715 0.292871
20110 1 0.211508 0.551071 0.292871
20113 1 0.239618 0.388309 0.292851
20119 1 0.239618 0.888309 0.292851
19565 1 0.281832 0.399677 0.268508
19566 1 0.30997 0.738471 0.268513
19571 1 0.281832 0.899677 0.268508
19572 1 0.30997 0.238471 0.268513
20114 1 0.267737 0.726121 0.29284
20116 1 0.295864 0.0645875 0.292838
20120 1 0.267737 0.226121 0.29284
20122 1 0.295864 0.564588 0.292838
19575 1 0.338114 0.0779627 0.268527
19577 1 0.366264 0.418217 0.26855
20134 1 0.380305 0.584942 0.292891
19581 1 0.338114 0.577963 0.268527
19583 1 0.366264 0.918217 0.26855
20132 1 0.352148 0.24389 0.292861
20131 1 0.324001 0.903804 0.292844
20128 1 0.380305 0.0849419 0.292891
20125 1 0.324001 0.403804 0.292844
20126 1 0.352148 0.74389 0.292861
20144 1 0.436637 0.270043 0.292972
20143 1 0.408468 0.927013 0.29293
20138 1 0.436637 0.770043 0.292972
20137 1 0.408468 0.427013 0.29293
19578 1 0.394419 0.75927 0.268582
19584 1 0.394419 0.25927 0.268582
19587 1 0.422577 0.101095 0.268619
19593 1 0.422577 0.601095 0.268619
20146 1 0.464808 0.613822 0.293004
20140 1 0.464808 0.113822 0.293004
19589 1 0.450737 0.443563 0.268652
19590 1 0.478897 0.786472 0.268671
19595 1 0.450737 0.943564 0.268652
19596 1 0.478897 0.286472 0.268671
20149 1 0.49298 0.458034 0.293016
20155 1 0.49298 0.958034 0.293016
20640 1 0.0567664 0.191415 0.365869
20639 3 0.0285356 0.856334 0.365958
20638 3 0.0426091 0.527519 0.341587
20634 1 0.0567664 0.691415 0.365869
20633 3 0.0285356 0.356334 0.365958
20632 3 0.0426091 0.027519 0.341587
20081 3 0.0285356 0.363719 0.317216
20082 3 0.0566827 0.698798 0.317216
20087 3 0.0285356 0.863719 0.317216
20088 3 0.0566827 0.198798 0.317216
20651 1 0.113126 0.860789 0.365972
20650 1 0.127199 0.532886 0.34161
20649 1 0.0850464 0.525636 0.365963
20648 1 0.0991347 0.197263 0.341617
20647 1 0.0710709 0.861772 0.34162
20645 1 0.113126 0.360789 0.365972
20644 1 0.127199 0.0328859 0.34161
20643 1 0.0850464 0.0256365 0.365963
20642 1 0.0991347 0.697263 0.341617
20641 1 0.0710709 0.361772 0.34162
20091 1 0.0851588 0.0337962 0.317271
20093 1 0.113153 0.369277 0.317247
20097 1 0.0851588 0.533796 0.317271
20099 1 0.113153 0.869277 0.317247
20661 1 0.169309 0.532089 0.365947
20660 1 0.183371 0.205064 0.341585
20659 1 0.155275 0.868822 0.3416
20655 1 0.169309 0.0320894 0.365947
20654 1 0.183371 0.705064 0.341585
20653 1 0.155275 0.368822 0.3416
20652 1 0.141215 0.19627 0.365962
20646 1 0.141215 0.69627 0.365962
20094 1 0.141237 0.705265 0.317252
20100 1 0.141237 0.205265 0.317252
20103 1 0.169333 0.0415645 0.317246
20109 1 0.169333 0.541565 0.317246
20673 1 0.253598 0.541635 0.365876
20671 1 0.239569 0.878556 0.341539
20667 1 0.253598 0.0416348 0.365876
20665 1 0.239569 0.378556 0.341539
20664 1 0.225501 0.20468 0.365902
20663 1 0.197405 0.868206 0.365926
20662 1 0.211469 0.5416 0.341563
20658 1 0.225501 0.70468 0.365902
20657 1 0.197405 0.368206 0.365926
20656 1 0.211469 0.0415997 0.341563
20105 1 0.197436 0.378099 0.317227
20106 1 0.22554 0.714994 0.317204
20111 1 0.197436 0.878099 0.317227
20112 1 0.22554 0.214994 0.317204
20115 1 0.253648 0.0523947 0.317185
20121 1 0.253648 0.552395 0.317185
20676 1 0.309808 0.217628 0.365832
20675 1 0.2817 0.879218 0.365852
20674 1 0.295788 0.5543 0.341502
20672 1 0.267675 0.216071 0.341518
20670 1 0.309808 0.717628 0.365832
20669 1 0.2817 0.379218 0.365852
20668 1 0.295788 0.0542996 0.341502
20666 1 0.267675 0.716071 0.341518
20117 1 0.281764 0.390421 0.317171
20118 1 0.309891 0.729206 0.317167
20123 1 0.281764 0.890421 0.317171
20124 1 0.309891 0.229206 0.317167
20687 1 0.366067 0.897951 0.365822
20686 1 0.380207 0.575323 0.341522
20685 1 0.337929 0.557094 0.36582
20684 1 0.352051 0.233678 0.341499
20683 1 0.323912 0.893427 0.341494
20681 1 0.366067 0.397951 0.365822
20680 1 0.380207 0.0753236 0.341522
20679 1 0.337929 0.0570936 0.36582
20678 1 0.352051 0.733678 0.341499
20677 1 0.323912 0.393428 0.341494
20135 1 0.36618 0.909702 0.317193
20133 1 0.338029 0.568908 0.317173
20129 1 0.36618 0.409702 0.317193
20127 1 0.338029 0.0689082 0.317173
20697 1 0.422419 0.585626 0.36589
20696 1 0.436574 0.263725 0.341616
20695 1 0.408382 0.918629 0.341563
20691 1 0.422419 0.0856261 0.36589
20690 1 0.436574 0.763726 0.341616
20689 1 0.408382 0.418629 0.341563
20688 1 0.394228 0.240636 0.365845
20682 1 0.394228 0.740636 0.365845
20145 1 0.422519 0.595111 0.317275
20139 1 0.422519 0.0951103 0.317275
20136 1 0.394344 0.251745 0.317229
20130 1 0.394344 0.751745 0.317229
20700 1 0.478868 0.282881 0.36599
20699 1 0.450636 0.933196 0.365948
20698 1 0.464777 0.610427 0.341662
20694 1 0.478868 0.782881 0.36599
20693 1 0.450636 0.433195 0.365948
20692 1 0.464777 0.110427 0.341662
20148 1 0.478889 0.285163 0.317349
20147 1 0.450702 0.939693 0.317321
20142 1 0.478889 0.785163 0.317349
20141 1 0.450702 0.439693 0.317321
20707 1 0.492985 0.958096 0.34168
20701 1 0.492985 0.458096 0.34168
21742 1 0.0428983 0.51096 0.439145
21740 3 0.014462 0.177499 0.439072
21736 1 0.0428983 0.0109598 0.439145
21734 3 0.014462 0.677499 0.439072
21192 1 0.0570139 0.182505 0.41474
21191 3 0.0285356 0.848519 0.414701
21190 3 0.0426091 0.51971 0.390329
21189 3 0.00038843 0.514343 0.414701
21188 3 0.014462 0.185269 0.390329
21186 1 0.0570139 0.682505 0.41474
21185 3 0.0285356 0.348518 0.414701
21184 3 0.0426091 0.0197102 0.390329
21183 3 0.00038843 0.0143433 0.414701
21182 3 0.014462 0.685268 0.390329
21754 1 0.127181 0.513899 0.439032
21752 1 0.0990966 0.179362 0.439042
21751 1 0.0710154 0.845128 0.439076
21748 1 0.127181 0.0138994 0.439032
21746 1 0.0990966 0.679362 0.439042
21745 1 0.0710154 0.345128 0.439076
21203 1 0.113106 0.851531 0.414671
21202 1 0.127146 0.52391 0.390318
21201 1 0.0850096 0.516806 0.414663
21200 1 0.099026 0.188899 0.390311
21199 1 0.0709122 0.854173 0.390295
21197 1 0.113106 0.351531 0.414671
21196 1 0.127146 0.0239105 0.390318
21195 1 0.0850096 0.016806 0.414663
21194 1 0.099026 0.688899 0.390311
21193 1 0.0709122 0.354173 0.390295
21764 1 0.183375 0.183568 0.43901
21763 1 0.155279 0.848654 0.439024
21758 1 0.183375 0.683568 0.43901
21757 1 0.155279 0.348654 0.439024
21213 1 0.169307 0.521692 0.414658
21212 1 0.18335 0.194891 0.390292
21211 1 0.155252 0.859252 0.390309
21207 1 0.169307 0.0216917 0.414658
21206 1 0.18335 0.694891 0.390292
21205 1 0.155252 0.359252 0.390309
21204 1 0.141207 0.186514 0.414668
21198 1 0.141207 0.686514 0.414668
21775 1 0.239559 0.854112 0.438967
21769 1 0.239559 0.354112 0.438967
21766 1 0.211468 0.518697 0.43899
21760 1 0.211468 0.0186969 0.43899
21225 1 0.253585 0.529013 0.414589
21223 1 0.239538 0.867203 0.390243
21219 1 0.253585 0.0290125 0.414589
21217 1 0.239538 0.367203 0.390243
21216 1 0.225496 0.19286 0.414616
21215 1 0.197403 0.857122 0.414639
21214 1 0.211446 0.530847 0.390269
21210 1 0.225496 0.69286 0.414616
21209 1 0.197403 0.357122 0.414639
21208 1 0.211446 0.0308467 0.390269
21778 1 0.295726 0.526266 0.438911
21776 1 0.267644 0.189916 0.43894
21772 1 0.295726 0.0262664 0.438911
21770 1 0.267644 0.689916 0.43894
21228 1 0.309759 0.203172 0.414529
21227 1 0.281672 0.86571 0.41456
21226 1 0.295726 0.541667 0.390188
21224 1 0.267631 0.204086 0.390216
21222 1 0.309759 0.703172 0.414529
21221 1 0.281672 0.36571 0.41456
21220 1 0.295726 0.041667 0.390188
21218 1 0.267631 0.704086 0.390216
21790 1 0.37996 0.541692 0.438804
21788 1 0.351879 0.201696 0.438842
21787 1 0.323803 0.863413 0.438877
21784 1 0.37996 0.0416921 0.438804
21782 1 0.351879 0.701696 0.438842
21781 1 0.323803 0.363413 0.438877
21239 1 0.36595 0.881684 0.414472
21238 1 0.380075 0.561481 0.390141
21237 1 0.337849 0.541686 0.414499
21236 1 0.351941 0.21996 0.390146
21235 1 0.323828 0.880186 0.390163
21233 1 0.36595 0.381684 0.414472
21232 1 0.380075 0.0614817 0.390141
21231 1 0.337849 0.0416862 0.414499
21230 1 0.351941 0.71996 0.390146
21229 1 0.323828 0.380186 0.390164
21800 1 0.436209 0.232149 0.438723
21799 1 0.40806 0.884396 0.438765
21794 1 0.436209 0.73215 0.438723
21793 1 0.40806 0.384397 0.438765
21249 1 0.42224 0.569492 0.414455
21248 1 0.436454 0.252857 0.390204
21247 1 0.408242 0.905458 0.390158
21243 1 0.422241 0.0694909 0.414455
21242 1 0.436454 0.752858 0.390204
21241 1 0.408242 0.405458 0.390158
21240 1 0.394074 0.223872 0.414455
21234 1 0.394074 0.723872 0.414455
21802 1 0.464522 0.589778 0.438764
21796 1 0.464522 0.0897796 0.438764
21252 1 0.478817 0.278088 0.41457
21251 1 0.450486 0.92062 0.414499
21250 1 0.464711 0.604179 0.390269
21246 1 0.478817 0.778086 0.41457
21245 1 0.450487 0.42062 0.414499
21244 1 0.464711 0.10418 0.390269
21811 1 0.492993 0.958242 0.438853
21805 1 0.492993 0.458244 0.438853
21259 1 0.492989 0.958171 0.390297
21253 1 0.492989 0.458171 0.390297
21744 1 0.0570548 0.17352 0.463466
21743 3 0.0285356 0.840397 0.463443
21741 3 0.00038843 0.506664 0.463443
21738 1 0.0570547 0.67352 0.463466
21737 3 0.0285356 0.340396 0.463443
21735 3 0.00038843 0.00666472 0.463443
22286 3 0.014462 0.669516 0.487814
22288 1 0.0428797 0.00220847 0.487811
22292 3 0.014462 0.169517 0.487814
22294 1 0.0428797 0.502208 0.487811
21755 1 0.113169 0.841552 0.463409
21753 1 0.0850925 0.507428 0.463432
21749 1 0.113169 0.341552 0.463409
21747 1 0.0850925 0.0074277 0.463432
22297 1 0.0710438 0.335954 0.487807
22298 1 0.0991465 0.669634 0.487791
22300 1 0.127237 0.00345663 0.487772
22303 1 0.0710438 0.835954 0.487807
22304 1 0.0991465 0.169634 0.487791
22306 1 0.127237 0.503457 0.487772
21765 1 0.169355 0.510293 0.463382
21759 1 0.169355 0.0102926 0.463382
21756 1 0.141259 0.17587 0.463395
21750 1 0.141259 0.67587 0.463395
22309 1 0.155338 0.337395 0.487755
22310 1 0.18344 0.671375 0.487739
22315 1 0.155338 0.837395 0.487755
22316 1 0.18344 0.171375 0.487739
21777 1 0.253638 0.514443 0.463323
21771 1 0.253638 0.0144433 0.463323
21768 1 0.225547 0.179526 0.463345
21767 1 0.197452 0.844831 0.463365
21762 1 0.225547 0.679526 0.463345
21761 1 0.197452 0.344831 0.463365
22312 1 0.211542 0.00539657 0.487721
22318 1 0.211542 0.505397 0.487721
22321 1 0.239641 0.339481 0.487703
22327 1 0.239641 0.839481 0.487703
21780 1 0.3098 0.185422 0.46327
21779 1 0.281723 0.849688 0.463298
21774 1 0.3098 0.685422 0.46327
21773 1 0.281723 0.349688 0.463298
22322 1 0.267736 0.673677 0.487683
22324 1 0.295824 0.00805596 0.487663
22328 1 0.267736 0.173676 0.487683
22330 1 0.295824 0.508056 0.487663
21791 1 0.365929 0.85951 0.4632
21789 1 0.33787 0.521897 0.463238
21785 1 0.365929 0.35951 0.4632
21783 1 0.33787 0.0218966 0.463238
22333 1 0.323904 0.342743 0.487641
22334 1 0.351971 0.67792 0.487617
22336 1 0.380015 0.0138905 0.487588
22339 1 0.323904 0.842742 0.487641
22340 1 0.351971 0.17792 0.487617
22342 1 0.380015 0.51389 0.487588
21801 1 0.422025 0.541697 0.463084
21795 1 0.422025 0.0416962 0.463084
21792 1 0.393979 0.198993 0.463153
21786 1 0.393979 0.698992 0.463153
22345 1 0.408019 0.351237 0.487548
22346 1 0.435982 0.691222 0.487485
22351 1 0.408019 0.851237 0.487548
22352 1 0.435982 0.19122 0.487485
21804 1 0.478624 0.262699 0.463044
21803 1 0.450138 0.892171 0.462967
21798 1 0.478624 0.762698 0.463044
21797 1 0.450138 0.392169 0.462967
22348 1 0.464033 0.0416967 0.487332
22354 1 0.464033 0.541697 0.487332
22357 1 0.492998 0.458302 0.487387
22363 1 0.492998 0.958302 0.487387
22287 3 0.00038843 0.99886 0.512186
22289 3 0.0285356 0.332124 0.512186
22290 1 0.0570653 0.664648 0.512157
22293 3 0.00038843 0.49886 0.512186
22295 3 0.0285356 0.832125 0.512186
22296 1 0.0570653 0.164648 0.512157
22838 3 0.014462 0.661476 0.536557
22839 3 0.00038843 0.991077 0.560928
22840 1 0.0429108 0.993825 0.536488
22841 3 0.0285356 0.323878 0.560928
22842 1 0.0570176 0.656206 0.560918
22844 3 0.014462 0.161477 0.536557
22845 3 0.00038843 0.491077 0.560928
22846 1 0.0429108 0.493825 0.536488
22847 3 0.0285356 0.823879 0.560928
22848 1 0.0570176 0.156206 0.560918
22299 1 0.0851147 0.99796 0.512166
22301 1 0.113209 0.331438 0.51215
22305 1 0.0851147 0.49796 0.512166
22307 1 0.113209 0.831438 0.51215
22849 1 0.0710421 0.326849 0.536543
22850 1 0.0991619 0.659914 0.536525
22851 1 0.0850942 0.988791 0.560899
22852 1 0.127276 0.992995 0.536501
22853 1 0.113231 0.321525 0.560867
22855 1 0.0710421 0.826849 0.536543
22856 1 0.0991619 0.159914 0.536525
22857 1 0.0850942 0.488791 0.560899
22858 1 0.127276 0.492995 0.536501
22859 1 0.113231 0.821525 0.560867
22302 1 0.141314 0.66495 0.512129
22308 1 0.141314 0.16495 0.512129
22311 1 0.169424 0.99842 0.51211
22317 1 0.169424 0.49842 0.51211
22854 1 0.141362 0.654178 0.560844
22860 1 0.141362 0.154178 0.560844
22861 1 0.155399 0.326021 0.53648
22862 1 0.183519 0.658912 0.536462
22863 1 0.169494 0.986638 0.560826
22867 1 0.155399 0.826021 0.53648
22868 1 0.183519 0.158912 0.536462
22869 1 0.169494 0.486638 0.560826
22313 1 0.197535 0.331836 0.512093
22314 1 0.225644 0.665181 0.512078
22319 1 0.197535 0.831836 0.512093
22320 1 0.225644 0.165181 0.512078
22323 1 0.253751 0.998452 0.512063
22329 1 0.253751 0.498452 0.512063
22864 1 0.211639 0.991628 0.536447
22865 1 0.197623 0.318853 0.560812
22866 1 0.22575 0.650763 0.560803
22870 1 0.211639 0.491628 0.536447
22871 1 0.197623 0.818853 0.560812
22872 1 0.22575 0.150763 0.560803
22873 1 0.239757 0.324138 0.536436
22875 1 0.253876 0.982293 0.560797
22879 1 0.239757 0.824138 0.536436
22881 1 0.253876 0.482293 0.560797
22325 1 0.281854 0.331642 0.512049
22326 1 0.309952 0.664753 0.512036
22331 1 0.281854 0.831642 0.512049
22332 1 0.309952 0.164753 0.512036
22874 1 0.267873 0.656376 0.536427
22876 1 0.295987 0.988265 0.536421
22877 1 0.281999 0.313319 0.560795
22878 1 0.310122 0.643654 0.5608
22880 1 0.267873 0.156376 0.536427
22882 1 0.295987 0.488264 0.536421
22883 1 0.281999 0.813319 0.560795
22884 1 0.310122 0.143654 0.5608
22335 1 0.338042 0.99775 0.512026
22337 1 0.36612 0.330516 0.512021
22341 1 0.338042 0.49775 0.512026
22343 1 0.36612 0.830517 0.512021
22885 1 0.324097 0.319641 0.53642
22886 1 0.352204 0.650168 0.536429
22887 1 0.338242 0.972913 0.560817
22888 1 0.380307 0.979186 0.536456
22889 1 0.366359 0.300465 0.560853
22891 1 0.324097 0.819641 0.53642
22892 1 0.352204 0.150168 0.536429
22893 1 0.338242 0.472914 0.560817
22894 1 0.380307 0.479187 0.536456
22895 1 0.366359 0.800465 0.560853
22338 1 0.394179 0.662755 0.512023
22344 1 0.394179 0.162755 0.512023
22347 1 0.422214 0.993598 0.512042
22353 1 0.422214 0.493599 0.512042
22890 1 0.394472 0.62518 0.560927
22896 1 0.394472 0.125181 0.560927
22897 1 0.408407 0.305278 0.536519
22898 1 0.436528 0.625124 0.536652
22899 1 0.422583 0.945031 0.561065
22903 1 0.408407 0.805277 0.536518
22904 1 0.436528 0.125126 0.536652
22905 1 0.422583 0.44503 0.561065
22349 1 0.450294 0.320683 0.512113
22350 1 0.478564 0.625069 0.512387
22355 1 0.450294 0.820683 0.512113
22356 1 0.478564 0.125069 0.512387
22900 1 0.464667 0.929514 0.537002
22901 1 0.450688 0.256657 0.56135
22902 1 0.478844 0.558978 0.561708
22906 1 0.464667 0.429511 0.537002
22907 1 0.450688 0.756657 0.56135
22908 1 0.478844 0.05898 0.561708
22909 1 0.493002 0.208441 0.537497
22915 1 0.493002 0.708444 0.537497
23390 3 0.014462 0.653541 0.585299
23392 1 0.0426825 0.986629 0.585352
23393 3 0.0285356 0.315831 0.609671
23394 1 0.0570353 0.647212 0.609611
23396 3 0.014462 0.153541 0.585299
23398 1 0.0426825 0.486629 0.585352
23399 3 0.0285356 0.815831 0.609671
23400 1 0.0570353 0.147212 0.609611
23401 1 0.0710489 0.318172 0.585263
23402 1 0.0991854 0.650501 0.585228
23403 1 0.085157 0.979726 0.609595
23404 1 0.127321 0.982825 0.585205
23405 1 0.113284 0.311953 0.609565
23407 1 0.0710489 0.818172 0.585263
23408 1 0.0991854 0.150501 0.585228
23409 1 0.085157 0.479726 0.609595
23410 1 0.127321 0.482825 0.585205
23411 1 0.113284 0.811953 0.609565
23406 1 0.141415 0.643874 0.609543
23412 1 0.141415 0.143874 0.609543
23413 1 0.155459 0.314972 0.585186
23414 1 0.183595 0.646807 0.585173
23415 1 0.169558 0.975443 0.609529
23419 1 0.155459 0.814972 0.585186
23420 1 0.183595 0.146807 0.585173
23421 1 0.169558 0.475443 0.609529
23416 1 0.211729 0.978275 0.585165
23417 1 0.197696 0.306584 0.609523
23418 1 0.22583 0.637274 0.609522
23422 1 0.211729 0.478275 0.585165
23423 1 0.197696 0.806584 0.609523
23424 1 0.22583 0.137274 0.609522
23425 1 0.23986 0.309308 0.585162
23427 1 0.253961 0.967405 0.609527
23431 1 0.23986 0.809308 0.585162
23433 1 0.253961 0.467405 0.609527
23426 1 0.26799 0.639776 0.585163
23428 1 0.296117 0.969501 0.585172
23429 1 0.28209 0.296816 0.609538
23430 1 0.310216 0.625251 0.60956
23432 1 0.26799 0.139776 0.585163
23434 1 0.296117 0.469502 0.585172
23435 1 0.28209 0.796816 0.609538
23436 1 0.310216 0.125251 0.60956
23437 1 0.324242 0.298153 0.585192
23438 1 0.352363 0.625224 0.585232
23439 1 0.338337 0.952329 0.6096
23440 1 0.380479 0.949943 0.585304
23441 1 0.366452 0.27754 0.609666
23443 1 0.324242 0.798153 0.585192
23444 1 0.352363 0.125224 0.585232
23445 1 0.338337 0.452329 0.6096
23446 1 0.380479 0.449942 0.585304
23447 1 0.366452 0.77754 0.609666
23442 1 0.394558 0.600244 0.609772
23448 1 0.394558 0.100244 0.609772
23449 1 0.408587 0.271174 0.585427
23450 1 0.436687 0.587559 0.585633
23451 1 0.422659 0.91985 0.609927
23455 1 0.408587 0.771175 0.585427
23456 1 0.436687 0.0875571 0.585633
23457 1 0.422659 0.41985 0.609927
23452 1 0.464808 0.899022 0.585888
23453 1 0.450771 0.236423 0.610114
23454 1 0.47892 0.551268 0.610242
23458 1 0.464808 0.399025 0.585888
23459 1 0.450771 0.736424 0.610114
23460 1 0.478919 0.0512658 0.610243
23461 1 0.493003 0.20851 0.585994
23467 1 0.493002 0.708506 0.585994
23942 3 0.014462 0.645859 0.634042
23944 3 0.0426091 0.977966 0.634042
23945 3 0.0285356 0.30813 0.658413
23946 3 0.0566827 0.639966 0.658413
23948 3 0.014462 0.14586 0.634042
23950 3 0.0426091 0.477965 0.634042
23951 3 0.0285356 0.808131 0.658413
23952 3 0.0566827 0.139966 0.658413
24496 3 0.0426091 0.970298 0.682784
24502 3 0.0426091 0.470297 0.682784
23953 1 0.0711369 0.30965 0.633956
23954 1 0.0992112 0.641661 0.633934
23955 1 0.0851166 0.972158 0.658263
23956 1 0.127363 0.973382 0.633897
23957 1 0.113288 0.303552 0.658241
23959 1 0.0711369 0.80965 0.633956
23960 1 0.0992112 0.141661 0.633934
23961 1 0.0851166 0.472158 0.658263
23962 1 0.127363 0.473382 0.633897
23963 1 0.113288 0.803552 0.658241
24505 1 0.0708924 0.303177 0.682669
24506 1 0.099268 0.633996 0.682552
24508 1 0.127447 0.964792 0.682534
24511 1 0.0708924 0.803177 0.682669
24512 1 0.099268 0.133996 0.682552
24514 1 0.127447 0.464792 0.682534
23958 1 0.141465 0.634574 0.658218
23964 1 0.141465 0.134574 0.658218
23965 1 0.155512 0.30472 0.633879
23966 1 0.183656 0.635603 0.633877
23967 1 0.169614 0.965209 0.658225
23971 1 0.155512 0.80472 0.633879
23972 1 0.183656 0.135603 0.633877
23973 1 0.169614 0.465209 0.658225
24517 1 0.155587 0.295229 0.682564
24518 1 0.183703 0.625361 0.682596
24523 1 0.155587 0.795229 0.682564
24524 1 0.183703 0.125361 0.682596
23968 1 0.211791 0.966045 0.633881
23969 1 0.197746 0.295465 0.658238
23970 1 0.225872 0.625303 0.65825
23974 1 0.211791 0.466045 0.633881
23975 1 0.197746 0.795465 0.658238
23976 1 0.225872 0.125303 0.65825
23977 1 0.239921 0.295981 0.633889
23979 1 0.253995 0.954591 0.658265
23983 1 0.239921 0.795981 0.633889
23985 1 0.253995 0.454591 0.658265
24520 1 0.211818 0.955193 0.682614
24526 1 0.211818 0.455193 0.682614
24529 1 0.239935 0.284572 0.682628
24535 1 0.239935 0.784572 0.682628
23978 1 0.268048 0.62527 0.633902
23980 1 0.296172 0.953704 0.633924
23981 1 0.282116 0.283148 0.658286
23982 1 0.310235 0.610763 0.65832
23984 1 0.268048 0.12527 0.633902
23986 1 0.296172 0.453704 0.633924
23987 1 0.282116 0.783148 0.658286
23988 1 0.310235 0.110763 0.65832
24530 1 0.268053 0.613326 0.682647
24532 1 0.29617 0.94128 0.682677
24536 1 0.268053 0.113326 0.682647
24538 1 0.29617 0.44128 0.682677
23989 1 0.324292 0.281008 0.633962
23990 1 0.352406 0.60684 0.634022
23991 1 0.338348 0.937207 0.658373
23992 1 0.380512 0.930822 0.634111
23993 1 0.366456 0.262242 0.658449
23995 1 0.324292 0.781008 0.633962
23996 1 0.352406 0.106839 0.634022
23997 1 0.338348 0.437207 0.658373
23998 1 0.380512 0.430823 0.634111
23999 1 0.366456 0.762242 0.658449
24541 1 0.324284 0.268282 0.682722
24542 1 0.352394 0.594176 0.682786
24544 1 0.380502 0.918881 0.682871
24547 1 0.324284 0.768281 0.682722
24548 1 0.352394 0.0941761 0.682786
24550 1 0.380502 0.418881 0.682871
23994 1 0.394561 0.585721 0.658551
24000 1 0.394561 0.0857213 0.658551