ITEM: TIMESTEP
40
ITEM: NUMBER OF ATOMS
2358
ITEM: BOX BOUNDS ss pp ss
-4.1117772832000000e+01 4.1700535187000000e+01
-4.1208122699999999e-01 4.5329187729999996e+00
-4.0239876534000004e+01 4.0576319157000000e+01
ITEM: ATOMS id type xs ys zs
17355 3 0.253713 0.084628 0.0503597
17361 3 0.253713 0.584628 0.0503597
17356 3 0.295933 0.0923545 0.0253797
17357 3 0.28186 0.421985 0.0503597
17358 3 0.310007 0.759554 0.0503597
17362 3 0.295933 0.592354 0.0253797
17363 3 0.28186 0.921986 0.0503597
17364 3 0.310007 0.259555 0.0503597
16817 3 0.366301 0.437486 0.00039968
16823 3 0.366301 0.937486 0.00039968
17365 3 0.32408 0.429861 0.0253797
17366 3 0.352228 0.76754 0.0253797
17367 3 0.338154 0.0973246 0.0503597
17368 3 0.380375 0.105371 0.0253797
17369 1 0.366391 0.436425 0.0506834
17371 3 0.32408 0.929862 0.0253797
17372 3 0.352228 0.26754 0.0253797
17373 3 0.338154 0.597324 0.0503597
17374 3 0.380375 0.605371 0.0253797
17375 1 0.366391 0.936425 0.0506834
16818 3 0.394448 0.775182 0.00039968
16824 3 0.394448 0.275183 0.00039968
16827 3 0.422595 0.112982 0.00039968
16833 3 0.422595 0.612982 0.00039968
17370 1 0.394557 0.773951 0.0507112
17376 1 0.394557 0.273951 0.0507112
17377 3 0.408522 0.443334 0.0253797
17378 3 0.436669 0.781402 0.0253797
17379 1 0.422635 0.111794 0.0505808
17383 3 0.408522 0.943334 0.0253797
17384 3 0.436669 0.281403 0.0253797
17385 1 0.422635 0.611794 0.0505808
16829 3 0.450743 0.450858 0.00039968
16830 3 0.47889 0.788785 0.00039968
16835 3 0.450743 0.950859 0.00039968
16836 3 0.47889 0.288785 0.00039968
17380 1 0.464817 0.119564 0.0254232
17381 1 0.450754 0.450095 0.0505771
17382 1 0.478889 0.788542 0.0505898
17386 1 0.464817 0.619564 0.0254232
17387 1 0.450754 0.950095 0.0505771
17388 1 0.478889 0.288542 0.0505898
17389 1 0.49296 0.457763 0.0254281
17395 1 0.49296 0.957763 0.0254281
18445 3 0.155198 0.398353 0.1253
18446 3 0.183345 0.735091 0.1253
18451 3 0.155198 0.898353 0.1253
18452 3 0.183345 0.235092 0.1253
17896 3 0.211492 0.0768771 0.0753397
17897 3 0.197418 0.406076 0.10032
17898 3 0.225565 0.74316 0.10032
17902 3 0.211492 0.576877 0.0753397
17903 3 0.197418 0.906076 0.10032
17904 3 0.225565 0.24316 0.10032
17905 3 0.239639 0.414004 0.0753397
17907 1 0.253899 0.0810439 0.100557
17911 3 0.239639 0.914005 0.0753397
17913 1 0.253899 0.581044 0.100557
18448 1 0.21145 0.0710048 0.125385
18454 1 0.21145 0.571005 0.125385
18457 1 0.239775 0.409512 0.12559
18463 1 0.239775 0.909512 0.12559
17906 3 0.267786 0.751372 0.0753397
17908 1 0.296021 0.0896636 0.0756397
17909 1 0.282042 0.418704 0.100673
17910 1 0.31014 0.756599 0.100573
17912 3 0.267786 0.251372 0.0753397
17914 1 0.296021 0.589664 0.0756397
17915 1 0.282042 0.918704 0.100673
17916 1 0.31014 0.256599 0.100573
18458 1 0.267894 0.747349 0.125552
18460 1 0.296052 0.085464 0.125554
18464 1 0.267894 0.247349 0.125552
18466 1 0.296052 0.585464 0.125554
17917 1 0.324225 0.427369 0.0756336
17918 1 0.35232 0.765433 0.0755805
17919 1 0.338261 0.0947808 0.100542
17920 1 0.380465 0.10393 0.0756207
17921 1 0.366383 0.433127 0.100554
17923 1 0.324225 0.927369 0.0756336
17924 1 0.35232 0.265433 0.0755805
17925 1 0.338261 0.594781 0.100542
17926 1 0.380465 0.60393 0.0756207
17927 1 0.366383 0.933127 0.100554
18469 1 0.324184 0.42361 0.125523
18470 1 0.352311 0.762087 0.125511
18472 1 0.380444 0.100871 0.125515
18475 1 0.324184 0.92361 0.125523
18476 1 0.352311 0.262087 0.125511
18478 1 0.380444 0.600871 0.125515
17922 1 0.394526 0.771803 0.100564
17928 1 0.394526 0.271803 0.100564
17929 1 0.4086 0.4422 0.0755774
17930 1 0.436708 0.780459 0.0755296
17931 1 0.422654 0.110506 0.100539
17935 1 0.4086 0.9422 0.0755774
17936 1 0.436708 0.280459 0.0755296
17937 1 0.422654 0.610506 0.100539
18481 1 0.40858 0.43991 0.125515
18482 1 0.436709 0.779082 0.125507
18487 1 0.40858 0.93991 0.125515
18488 1 0.436709 0.279082 0.125507
17932 1 0.464827 0.119048 0.0755246
17933 1 0.450771 0.449285 0.100519
17934 1 0.478893 0.788262 0.100517
17938 1 0.464827 0.619048 0.0755246
17939 1 0.450771 0.949285 0.100519
17940 1 0.478893 0.288262 0.100517
18484 1 0.464832 0.118382 0.125502
18490 1 0.464832 0.618382 0.125502
17941 1 0.492955 0.457782 0.0755293
17947 1 0.492955 0.957782 0.0755293
18493 1 0.492955 0.457802 0.125504
18499 1 0.492955 0.957802 0.125504
18988 3 0.127051 0.0561676 0.17526
18994 3 0.127051 0.556167 0.17526
18438 3 0.141124 0.72732 0.15028
18444 3 0.141124 0.227321 0.15028
18447 3 0.169271 0.0639362 0.15028
18453 3 0.169271 0.563936 0.15028
18997 1 0.155212 0.390518 0.175313
18998 1 0.183535 0.728858 0.175563
19003 1 0.155212 0.890518 0.175313
19004 1 0.183535 0.228858 0.175563
18449 1 0.197603 0.401185 0.150555
18450 1 0.225676 0.7379 0.150505
18455 1 0.197603 0.901185 0.150555
18456 1 0.225676 0.2379 0.150505
18459 1 0.253794 0.0756673 0.150487
18465 1 0.253794 0.575667 0.150487
19000 1 0.211613 0.0663519 0.175489
19006 1 0.211613 0.566352 0.175489
19009 1 0.239721 0.403759 0.17544
19015 1 0.239721 0.903759 0.17544
18461 1 0.281944 0.41369 0.150488
18462 1 0.310089 0.752027 0.150479
18467 1 0.281944 0.91369 0.150488
18468 1 0.310089 0.252027 0.150479
19010 1 0.267849 0.741653 0.175425
19012 1 0.295989 0.0799183 0.175419
19016 1 0.267849 0.241653 0.175425
19018 1 0.295989 0.579918 0.175419
18471 1 0.338226 0.090566 0.150469
18473 1 0.366362 0.42947 0.150472
18477 1 0.338226 0.590566 0.150469
18479 1 0.366362 0.92947 0.150472
19021 1 0.324132 0.418551 0.17542
19022 1 0.352273 0.757569 0.175424
19024 1 0.380414 0.0970193 0.175435
19027 1 0.324132 0.918551 0.17542
19028 1 0.352273 0.257569 0.175424
19030 1 0.380414 0.597019 0.175435
18474 1 0.3945 0.768737 0.150481
18480 1 0.3945 0.268737 0.150481
18483 1 0.422636 0.108277 0.150485
18489 1 0.422636 0.608277 0.150485
19033 1 0.408554 0.436856 0.175448
19034 1 0.436692 0.777001 0.175459
19039 1 0.408554 0.936856 0.175448
19040 1 0.436692 0.277001 0.175459
18485 1 0.450766 0.448003 0.150486
18486 1 0.478893 0.787859 0.150488
18491 1 0.450766 0.948003 0.150486
18492 1 0.478893 0.287859 0.150488
19036 1 0.464826 0.117364 0.175466
19042 1 0.464826 0.617364 0.175466
19045 1 0.492959 0.457837 0.17547
19051 1 0.492959 0.957837 0.17547
18987 3 0.0848298 0.0489016 0.20024
18989 3 0.112977 0.384919 0.20024
18993 3 0.0848298 0.548901 0.20024
18995 3 0.112977 0.88492 0.20024
19537 3 0.0707563 0.377789 0.22522
19538 3 0.0989034 0.713605 0.22522
19540 1 0.127234 0.0500855 0.225491
19543 3 0.0707563 0.877789 0.22522
19544 3 0.0989034 0.213605 0.22522
19546 1 0.127234 0.550085 0.225491
18990 1 0.141082 0.720088 0.200381
18996 1 0.141082 0.220088 0.200381
18999 1 0.169317 0.0569599 0.200422
19005 1 0.169317 0.55696 0.200422
19549 1 0.155309 0.385756 0.225424
19550 1 0.183391 0.722264 0.225348
19555 1 0.155309 0.885756 0.225424
19556 1 0.183391 0.222264 0.225348
19001 1 0.197473 0.394415 0.200428
19002 1 0.225627 0.731792 0.200404
19007 1 0.197473 0.894415 0.200428
19008 1 0.225627 0.231792 0.200404
19011 1 0.253756 0.0694172 0.200372
19017 1 0.253756 0.569417 0.200372
19552 1 0.211531 0.0594951 0.225341
19558 1 0.211531 0.559495 0.225341
19561 1 0.239664 0.396949 0.225321
19567 1 0.239664 0.896949 0.225321
19013 1 0.281893 0.407489 0.200361
19014 1 0.310034 0.746062 0.200361
19019 1 0.281893 0.907489 0.200361
19020 1 0.310034 0.246062 0.200361
19562 1 0.267798 0.734798 0.225306
19564 1 0.295934 0.0731818 0.2253
19568 1 0.267798 0.234798 0.225306
19570 1 0.295934 0.573182 0.2253
19023 1 0.338177 0.0851233 0.200367
19025 1 0.366321 0.424694 0.20038
19029 1 0.338177 0.585123 0.200367
19031 1 0.366321 0.924694 0.20038
19573 1 0.324075 0.41215 0.225304
19574 1 0.352221 0.751739 0.225317
19576 1 0.380369 0.091967 0.225338
19579 1 0.324075 0.91215 0.225304
19580 1 0.352221 0.25174 0.225317
19582 1 0.380369 0.591967 0.225338
19026 1 0.394465 0.764774 0.200398
19032 1 0.394465 0.264774 0.200398
19035 1 0.42261 0.105303 0.200418
19041 1 0.42261 0.605303 0.200418
19585 1 0.408518 0.432809 0.225363
19586 1 0.436668 0.774176 0.225388
19591 1 0.408518 0.932809 0.225363
19592 1 0.436668 0.274176 0.225388
19037 1 0.450752 0.446181 0.200433
19038 1 0.478891 0.787277 0.200443
19043 1 0.450752 0.946181 0.200433
19044 1 0.478891 0.287277 0.200443
19588 1 0.464816 0.115926 0.225407
19594 1 0.464816 0.615926 0.225407
19597 1 0.492963 0.457885 0.225414
19603 1 0.492963 0.957885 0.225414
19530 3 0.0566827 0.70666 0.2502
19536 3 0.0566827 0.20666 0.2502
20080 3 0.0426091 0.0355411 0.27518
20081 3 0.0285356 0.364459 0.30016
20082 3 0.0566827 0.699571 0.30016
20086 3 0.0426091 0.535541 0.27518
20087 3 0.0285356 0.86446 0.30016
20088 3 0.0566827 0.199572 0.30016
19539 3 0.0848298 0.0422537 0.2502
19541 1 0.113197 0.378199 0.250464
19545 3 0.0848298 0.542253 0.2502
19547 1 0.113197 0.878199 0.250464
20089 3 0.0707563 0.370898 0.27518
20090 1 0.0990824 0.706366 0.275293
20091 1 0.085157 0.0345054 0.300235
20092 1 0.127195 0.0423495 0.275322
20093 1 0.11316 0.369987 0.300235
20095 3 0.0707563 0.870898 0.27518
20096 1 0.0990824 0.206366 0.275293
20097 1 0.085157 0.534505 0.300235
20098 1 0.127195 0.54235 0.275322
20099 1 0.11316 0.869987 0.300235
19542 1 0.141274 0.714306 0.250396
19548 1 0.141274 0.214306 0.250396
19551 1 0.169366 0.0504291 0.250331
19557 1 0.169366 0.550429 0.250331
20094 1 0.141257 0.705987 0.300252
20100 1 0.141257 0.205987 0.300252
20101 1 0.155313 0.378369 0.275305
20102 1 0.183409 0.71467 0.27526
20103 1 0.16935 0.042131 0.30023
20107 1 0.155313 0.878369 0.275305
20108 1 0.183409 0.21467 0.27526
20109 1 0.16935 0.542131 0.30023
19553 1 0.197463 0.387047 0.250287
19554 1 0.225581 0.724213 0.250269
19559 1 0.197463 0.887047 0.250287
19560 1 0.225581 0.224213 0.250269
19563 1 0.253707 0.0618308 0.250253
19569 1 0.253707 0.561831 0.250253
20104 1 0.211512 0.051393 0.275228
20105 1 0.197448 0.37854 0.300199
20106 1 0.225549 0.715382 0.30017
20110 1 0.211512 0.551393 0.275228
20111 1 0.197448 0.87854 0.300199
20112 1 0.225549 0.215382 0.30017
20113 1 0.239624 0.388654 0.275206
20115 1 0.253656 0.052751 0.300146
20119 1 0.239624 0.888654 0.275206
20121 1 0.253656 0.552751 0.300146
19565 1 0.281836 0.399959 0.250242
19566 1 0.309972 0.73871 0.25024
19571 1 0.281836 0.899959 0.250242
19572 1 0.309972 0.23871 0.25024
20114 1 0.267742 0.726449 0.275189
20116 1 0.295869 0.0648683 0.275179
20117 1 0.281771 0.39074 0.300127
20118 1 0.309895 0.729484 0.300117
20120 1 0.267742 0.226449 0.275189
20122 1 0.295869 0.564868 0.275179
20123 1 0.281771 0.89074 0.300127
20124 1 0.309895 0.229484 0.300117
19575 1 0.338114 0.0781681 0.250248
19577 1 0.366262 0.4184 0.250267
19581 1 0.338114 0.578168 0.250248
19583 1 0.366262 0.9184 0.250267
20135 1 0.366178 0.909887 0.300135
20125 1 0.324004 0.404045 0.275179
20126 1 0.352148 0.744092 0.275192
20127 1 0.33803 0.0691396 0.300118
20128 1 0.380302 0.0851117 0.275218
20129 1 0.366178 0.409887 0.300135
20131 1 0.324004 0.904045 0.275179
20132 1 0.352148 0.244092 0.275192
20133 1 0.33803 0.56914 0.300118
20134 1 0.380302 0.585112 0.275218
20145 1 0.422513 0.595203 0.30021
20144 1 0.43663 0.270104 0.275293
19578 1 0.394416 0.759427 0.250296
20143 1 0.408464 0.927136 0.275254
19584 1 0.394416 0.259427 0.250296
20139 1 0.422513 0.095203 0.30021
19587 1 0.422573 0.101204 0.250329
20138 1 0.43663 0.770104 0.275293
20137 1 0.408464 0.427136 0.275254
20136 1 0.39434 0.251887 0.300167
19593 1 0.422573 0.601203 0.250329
20130 1 0.39434 0.751887 0.300167
20148 1 0.478877 0.285124 0.300281
20147 1 0.450694 0.939729 0.300254
20146 1 0.464799 0.613819 0.275323
20142 1 0.478877 0.785125 0.300281
20141 1 0.450694 0.439729 0.300254
20140 1 0.464799 0.113819 0.275323
19589 1 0.45073 0.443607 0.250358
19590 1 0.478887 0.786428 0.250375
19595 1 0.45073 0.943607 0.250358
19596 1 0.478887 0.286428 0.250375
20149 1 0.492967 0.457943 0.275335
20155 1 0.492967 0.957943 0.275335
21190 3 0.0426091 0.520544 0.3751
21188 3 0.014462 0.18606 0.3751
21184 3 0.0426091 0.0205448 0.3751
21182 3 0.014462 0.68606 0.3751
20640 1 0.0567662 0.192191 0.350033
20639 3 0.0285356 0.857125 0.35012
20638 3 0.0426091 0.528304 0.32514
20634 1 0.0567662 0.692191 0.350033
20633 3 0.0285356 0.357125 0.35012
20632 3 0.0426091 0.0283043 0.32514
21202 1 0.127149 0.524583 0.375116
21200 1 0.0990265 0.189607 0.375101
21199 1 0.0709116 0.854921 0.375076
21196 1 0.127149 0.0245835 0.375116
21194 1 0.0990265 0.689607 0.375101
21193 1 0.0709116 0.354921 0.375076
20651 1 0.113128 0.861485 0.350162
20650 1 0.127206 0.533593 0.325201
20649 1 0.085046 0.526358 0.350141
20648 1 0.0991352 0.197971 0.325196
20647 1 0.0710698 0.862514 0.325183
20645 1 0.113128 0.361485 0.350162
20644 1 0.127206 0.0335928 0.325201
20643 1 0.085046 0.0263576 0.350141
20642 1 0.0991352 0.697971 0.325196
20641 1 0.0710698 0.362514 0.325183
21212 1 0.183359 0.195461 0.375094
21211 1 0.155258 0.859887 0.375111
21206 1 0.183359 0.695461 0.375094
21205 1 0.155258 0.359887 0.375111
20661 1 0.16932 0.532698 0.350143
20660 1 0.183384 0.205609 0.325172
20659 1 0.155289 0.869475 0.325194
20655 1 0.16932 0.0326978 0.350143
20654 1 0.183384 0.705609 0.325172
20653 1 0.155289 0.369475 0.325194
20652 1 0.141222 0.196942 0.350158
20646 1 0.141222 0.696942 0.350158
21223 1 0.239546 0.867642 0.37504
21217 1 0.239546 0.367642 0.37504
21214 1 0.211454 0.531353 0.375069
21208 1 0.211454 0.0313526 0.375069
20673 1 0.253607 0.542031 0.350059
20671 1 0.239579 0.878957 0.325114
20667 1 0.253607 0.0420312 0.350059
20665 1 0.239579 0.378956 0.325114
20664 1 0.225511 0.205139 0.350089
20663 1 0.197416 0.868733 0.350119
20662 1 0.21148 0.542062 0.325143
20658 1 0.225511 0.705139 0.350089
20657 1 0.197416 0.368733 0.350119
20656 1 0.21148 0.0420621 0.325143
21226 1 0.295729 0.542 0.374976
21224 1 0.267637 0.204465 0.375008
21220 1 0.295729 0.0420002 0.374976
21218 1 0.267637 0.704465 0.375008
20676 1 0.309812 0.21792 0.350006
20675 1 0.281706 0.879568 0.35003
20674 1 0.295793 0.554614 0.325066
20672 1 0.267682 0.216427 0.325087
20670 1 0.309812 0.71792 0.350006
20669 1 0.281706 0.379568 0.35003
20668 1 0.295793 0.0546135 0.325066
20666 1 0.267682 0.716427 0.325087
21238 1 0.380071 0.561677 0.374916
21236 1 0.351939 0.220196 0.374925
21235 1 0.323828 0.880463 0.374947
21232 1 0.380071 0.0616767 0.374916
21230 1 0.351939 0.720196 0.374925
21229 1 0.323828 0.380463 0.374947
20687 1 0.366065 0.89815 0.349988
20686 1 0.380204 0.575488 0.325074
20685 1 0.337929 0.557335 0.34999
20684 1 0.352051 0.233889 0.325055
20683 1 0.323915 0.89369 0.325054
20681 1 0.366065 0.39815 0.349988
20680 1 0.380204 0.0754882 0.325074
20679 1 0.337929 0.057335 0.34999
20678 1 0.352051 0.733888 0.325055
20677 1 0.323915 0.39369 0.325054
21248 1 0.436445 0.252952 0.374975
21247 1 0.408235 0.905611 0.37493
21242 1 0.436445 0.752951 0.374975
21241 1 0.408235 0.405611 0.37493
20697 1 0.422412 0.585744 0.350049
20696 1 0.436566 0.263802 0.325162
20695 1 0.408377 0.918755 0.325111
20691 1 0.422412 0.0857444 0.350049
20690 1 0.436566 0.763801 0.325162
20689 1 0.408377 0.418755 0.325111
20688 1 0.394224 0.240799 0.350006
20682 1 0.394224 0.740799 0.350006
21250 1 0.464699 0.604197 0.375039
21244 1 0.464699 0.104197 0.375039
20700 1 0.478855 0.282845 0.350149
20699 1 0.450626 0.933241 0.350107
20698 1 0.464766 0.610432 0.325207
20694 1 0.478855 0.782846 0.350149
20693 1 0.450626 0.433241 0.350107
20692 1 0.464766 0.110432 0.325207
21259 1 0.492974 0.958106 0.375068
21253 1 0.492974 0.458106 0.375068
20707 1 0.492971 0.958022 0.325226
20701 1 0.492971 0.458021 0.325226
21742 1 0.0428983 0.511755 0.425139
21740 3 0.014462 0.178321 0.42506
21736 1 0.0428983 0.011755 0.425139
21734 3 0.014462 0.67832 0.42506
21192 1 0.0570135 0.183275 0.400127
21191 3 0.0285356 0.84935 0.40008
21189 3 0.00038843 0.51513 0.40008
21186 1 0.0570134 0.683275 0.400127
21185 3 0.0285356 0.349349 0.40008
21183 3 0.00038843 0.0151303 0.40008
21754 1 0.127181 0.514539 0.425045
21752 1 0.0990962 0.180054 0.425049
21751 1 0.071015 0.845861 0.425077
21748 1 0.127181 0.0145392 0.425045
21746 1 0.0990962 0.680054 0.425049
21745 1 0.071015 0.345861 0.425077
21203 1 0.113107 0.852212 0.400072
21201 1 0.085009 0.517529 0.400057
21197 1 0.113107 0.352212 0.400072
21195 1 0.085009 0.0175286 0.400057
21764 1 0.183377 0.184113 0.425029
21763 1 0.15528 0.849244 0.425041
21758 1 0.183377 0.684113 0.425029
21757 1 0.15528 0.349244 0.425041
21213 1 0.169312 0.522278 0.400067
21207 1 0.169312 0.0222776 0.400067
21204 1 0.14121 0.187147 0.400076
21198 1 0.14121 0.687147 0.400076
21775 1 0.23956 0.854546 0.424985
21769 1 0.23956 0.354546 0.424985
21766 1 0.211471 0.519189 0.42501
21760 1 0.211471 0.0191892 0.42501
21225 1 0.253589 0.529416 0.399995
21219 1 0.253589 0.029416 0.399995
21216 1 0.225501 0.19333 0.400024
21215 1 0.197409 0.857651 0.400049
21210 1 0.225501 0.69333 0.400024
21209 1 0.197409 0.357651 0.400049
21778 1 0.295723 0.526619 0.424922
21776 1 0.267644 0.190302 0.424956
21772 1 0.295723 0.0266183 0.424922
21770 1 0.267644 0.690302 0.424956
21228 1 0.309758 0.203492 0.399926
21227 1 0.281674 0.866075 0.399961
21222 1 0.309758 0.703492 0.399926
21221 1 0.281674 0.366075 0.399961
21790 1 0.379951 0.541888 0.424802
21788 1 0.351873 0.201944 0.424845
21787 1 0.323799 0.86371 0.424885
21784 1 0.379952 0.0418877 0.424802
21782 1 0.351873 0.701943 0.424845
21781 1 0.323799 0.36371 0.424885
21239 1 0.365946 0.881905 0.39986
21237 1 0.337847 0.541954 0.399892
21233 1 0.365946 0.381905 0.39986
21231 1 0.337847 0.0419537 0.399892
21800 1 0.436196 0.232249 0.424714
21799 1 0.408048 0.884538 0.424759
21794 1 0.436196 0.732249 0.424714
21793 1 0.408048 0.384537 0.424759
21249 1 0.42223 0.569615 0.399837
21243 1 0.42223 0.0696155 0.399837
21240 1 0.394067 0.224043 0.399839
21234 1 0.394067 0.724043 0.399839
21802 1 0.464506 0.589817 0.424755
21796 1 0.464506 0.0898156 0.424755
21252 1 0.478802 0.278079 0.399951
21251 1 0.450474 0.920686 0.39988
21246 1 0.478802 0.77808 0.399951
21245 1 0.450474 0.420687 0.39988
21811 1 0.492976 0.958192 0.424845
21805 1 0.492976 0.45819 0.424845
21744 1 0.0570539 0.174277 0.450073
21743 3 0.0285356 0.841253 0.45004
21741 3 0.00038843 0.507472 0.45004
21738 1 0.0570538 0.674277 0.450073
21737 3 0.0285356 0.341252 0.45004
21735 3 0.00038843 0.00747292 0.45004
22286 3 0.014462 0.670353 0.47502
22287 3 0.00038843 0.999675 0.5
22288 1 0.0428791 0.0029916 0.475025
22289 3 0.0285356 0.332988 0.5
22290 1 0.0570542 0.665289 0.499996
22292 3 0.014462 0.170354 0.47502
22293 3 0.00038843 0.499674 0.5
22294 1 0.0428791 0.502992 0.475025
22295 3 0.0285356 0.832988 0.5
22296 1 0.0570542 0.165289 0.499996
21755 1 0.113168 0.842212 0.450028
21753 1 0.0850911 0.50813 0.450046
21749 1 0.113168 0.342212 0.450028
21747 1 0.0850911 0.00812961 0.450046
22297 1 0.071039 0.33664 0.47503
22298 1 0.0991458 0.670301 0.475014
22299 1 0.0851156 0.998619 0.499992
22300 1 0.127238 0.00407264 0.475002
22301 1 0.113213 0.332051 0.499985
22303 1 0.071039 0.836639 0.47503
22304 1 0.0991458 0.170301 0.475014
22305 1 0.0851156 0.498619 0.499992
22306 1 0.127238 0.504073 0.475002
22307 1 0.113213 0.832051 0.499985
21765 1 0.169355 0.510841 0.450009
21759 1 0.169355 0.0108407 0.450009
21756 1 0.141259 0.176475 0.450019
21750 1 0.141259 0.676475 0.450019
22302 1 0.141314 0.665494 0.499975
22308 1 0.141314 0.165494 0.499975
22309 1 0.155337 0.337946 0.474992
22310 1 0.183436 0.671862 0.474979
22311 1 0.169418 0.998899 0.499962
22315 1 0.155337 0.837946 0.474992
22316 1 0.183436 0.171862 0.474979
22317 1 0.169418 0.498899 0.499962
21777 1 0.253634 0.514845 0.449952
21771 1 0.253634 0.0148454 0.449952
21768 1 0.225545 0.179967 0.449976
21767 1 0.197452 0.845324 0.449995
21762 1 0.225545 0.679967 0.449976
21761 1 0.197452 0.345324 0.449995
22312 1 0.211536 0.00582899 0.474964
22313 1 0.197524 0.332261 0.499949
22314 1 0.225631 0.665573 0.499934
22318 1 0.211536 0.505829 0.474964
22319 1 0.197524 0.832261 0.499949
22320 1 0.225631 0.165573 0.499934
22321 1 0.239633 0.339879 0.474945
22323 1 0.253736 0.998829 0.499916
22327 1 0.239633 0.839879 0.474945
22329 1 0.253736 0.498829 0.499916
21780 1 0.309793 0.18575 0.449891
21779 1 0.281717 0.850055 0.449923
21774 1 0.309793 0.685749 0.449891
21773 1 0.281717 0.350055 0.449923
22322 1 0.267726 0.674052 0.474923
22324 1 0.295813 0.00840462 0.474899
22325 1 0.281838 0.332008 0.499899
22326 1 0.309934 0.665079 0.499883
22328 1 0.267726 0.174052 0.474923
22330 1 0.295813 0.508405 0.474899
22331 1 0.281838 0.832008 0.499899
22332 1 0.309934 0.165079 0.499883
21791 1 0.365918 0.859732 0.449813
21789 1 0.33786 0.522167 0.449856
21785 1 0.365918 0.359732 0.449813
21783 1 0.33786 0.0221672 0.449856
22333 1 0.323891 0.34304 0.474873
22334 1 0.351957 0.678156 0.474845
22335 1 0.338024 0.998013 0.49987
22336 1 0.38 0.0140728 0.474812
22337 1 0.366102 0.330723 0.499861
22339 1 0.323891 0.84304 0.474873
22340 1 0.351957 0.178156 0.474845
22341 1 0.338024 0.498013 0.49987
22342 1 0.38 0.514074 0.474812
22343 1 0.366102 0.830722 0.499861
21801 1 0.422009 0.541807 0.449688
21795 1 0.422009 0.0418069 0.449688
21792 1 0.393966 0.199154 0.449761
21786 1 0.393966 0.699156 0.449761
22338 1 0.39416 0.662895 0.499859
22344 1 0.39416 0.162896 0.499859
22345 1 0.408002 0.351356 0.474768
22346 1 0.435964 0.691292 0.474702
22347 1 0.422193 0.993676 0.499877
22351 1 0.408002 0.851356 0.474768
22352 1 0.435964 0.191294 0.474702
22353 1 0.422193 0.493674 0.499877
21804 1 0.478606 0.262698 0.449644
21803 1 0.450122 0.892233 0.449566
21798 1 0.478606 0.762698 0.449644
21797 1 0.450122 0.392235 0.449567
22348 1 0.464013 0.0417396 0.474543
22349 1 0.450272 0.320711 0.499947
22363 1 0.492977 0.958285 0.474598
22354 1 0.464013 0.54174 0.474543
22355 1 0.450272 0.820712 0.499947
22357 1 0.492977 0.458285 0.474598
22838 3 0.014462 0.662312 0.52498
22839 3 0.00038843 0.991883 0.54996
22840 1 0.0428876 0.994393 0.524968
22841 3 0.0285356 0.324731 0.54996
22842 1 0.0570779 0.656612 0.549916
22844 3 0.014462 0.162312 0.52498
22845 3 0.00038843 0.491882 0.54996
22846 1 0.0428876 0.494393 0.524968
22847 3 0.0285356 0.824731 0.54996
22848 1 0.0570779 0.156612 0.549916
22849 1 0.0710581 0.327484 0.524959
22850 1 0.0991768 0.660498 0.524961
22851 1 0.0851386 0.989294 0.549932
22852 1 0.12728 0.993507 0.524956
22853 1 0.113238 0.321986 0.549937
22855 1 0.0710581 0.827484 0.524959
22856 1 0.0991768 0.160498 0.524961
22857 1 0.0851386 0.489294 0.549932
22858 1 0.12728 0.493507 0.524956
22859 1 0.113238 0.821986 0.549937
22854 1 0.14135 0.654597 0.549927
22860 1 0.14135 0.154597 0.549927
22861 1 0.155391 0.326474 0.524945
22862 1 0.183504 0.659323 0.524931
22863 1 0.16947 0.987032 0.549912
22867 1 0.155391 0.826474 0.524945
22868 1 0.183504 0.159323 0.524931
22869 1 0.16947 0.487032 0.549912
22864 1 0.211619 0.992016 0.524917
22865 1 0.197594 0.319238 0.549897
22866 1 0.225719 0.651156 0.549884
22870 1 0.211619 0.492016 0.524917
22871 1 0.197594 0.819238 0.549897
22872 1 0.225719 0.151156 0.549884
22873 1 0.239735 0.324518 0.524903
22875 1 0.253845 0.982702 0.549874
22879 1 0.239735 0.824518 0.524903
22881 1 0.253845 0.482702 0.549874
22874 1 0.267851 0.65676 0.52489
22876 1 0.295964 0.988623 0.52488
22877 1 0.28197 0.313728 0.549868
22878 1 0.310093 0.644012 0.54987
22880 1 0.267851 0.15676 0.52489
22882 1 0.295964 0.488623 0.52488
22883 1 0.28197 0.813728 0.549868
22884 1 0.310093 0.144012 0.54987
22885 1 0.324074 0.319944 0.524877
22886 1 0.352182 0.650415 0.524883
22887 1 0.338214 0.973211 0.549884
22888 1 0.380284 0.979363 0.524907
22889 1 0.366332 0.300691 0.549919
22891 1 0.324074 0.819944 0.524877
22892 1 0.352182 0.150416 0.524883
22893 1 0.338214 0.473211 0.549884
22894 1 0.380284 0.479362 0.524907
22895 1 0.366332 0.800692 0.549919
22890 1 0.394446 0.62532 0.549991
22896 1 0.394446 0.125319 0.549991
22897 1 0.408384 0.305374 0.524969
22898 1 0.436504 0.625156 0.525103
22899 1 0.422557 0.945095 0.550131
22903 1 0.408384 0.805375 0.524969
22904 1 0.436504 0.125154 0.525103
22905 1 0.422557 0.445096 0.550131
22900 1 0.464643 0.929478 0.525461
22901 1 0.450662 0.256652 0.55042
22902 1 0.478819 0.558924 0.550784
22906 1 0.464643 0.429481 0.525461
22907 1 0.450662 0.756652 0.55042
22908 1 0.478819 0.0589225 0.550784
22909 1 0.492977 0.208376 0.525965
22915 1 0.492977 0.708373 0.525965
22356 1 0.478541 0.125015 0.500227
22350 1 0.478541 0.625015 0.500227
23390 3 0.014462 0.654358 0.57494
23391 3 0.00038843 0.984243 0.59992
23392 1 0.0429161 0.9862 0.574851
23393 3 0.0285356 0.316655 0.59992
23394 1 0.0570434 0.648575 0.599849
23396 3 0.014462 0.154358 0.57494
23397 3 0.00038843 0.484243 0.59992
23398 1 0.0429161 0.4862 0.574851
23399 3 0.0285356 0.816655 0.59992
23400 1 0.0570434 0.148575 0.599849
23942 3 0.014462 0.646644 0.6249
23944 3 0.0426091 0.978792 0.6249
23948 3 0.014462 0.146644 0.6249
23950 3 0.0426091 0.478791 0.6249
23401 1 0.0710637 0.318735 0.574902
23402 1 0.0991786 0.651052 0.574917
23403 1 0.0850905 0.980621 0.5999
23404 1 0.127289 0.983275 0.574911
23405 1 0.113214 0.312508 0.599894
23407 1 0.0710637 0.818735 0.574902
23408 1 0.0991786 0.151052 0.574917
23409 1 0.0850905 0.480621 0.5999
23410 1 0.127289 0.483275 0.574911
23411 1 0.113214 0.812508 0.599894
23953 1 0.0709969 0.310999 0.624851
23954 1 0.0991096 0.642337 0.624887
23956 1 0.12727 0.973782 0.624845
23959 1 0.0709969 0.810999 0.624851
23960 1 0.0991096 0.142337 0.624887
23962 1 0.12727 0.473782 0.624845
23406 1 0.14135 0.644319 0.59987
23412 1 0.14135 0.144319 0.59987
23413 1 0.155418 0.315378 0.574891
23414 1 0.183551 0.647212 0.574873
23415 1 0.169495 0.975871 0.599846
23419 1 0.155418 0.815378 0.574891
23420 1 0.183551 0.147212 0.574873
23421 1 0.169495 0.475871 0.599846
23965 1 0.155428 0.305115 0.624815
23966 1 0.18358 0.63609 0.624797
23971 1 0.155428 0.805115 0.624815
23972 1 0.18358 0.13609 0.624797
23416 1 0.211686 0.978699 0.574859
23417 1 0.197638 0.30705 0.599831
23418 1 0.225778 0.637765 0.599823
23422 1 0.211686 0.478699 0.574859
23423 1 0.197638 0.80705 0.599831
23424 1 0.225778 0.137765 0.599823
23425 1 0.23982 0.309749 0.574851
23427 1 0.253915 0.96791 0.599822
23431 1 0.23982 0.809749 0.574851
23433 1 0.253915 0.46791 0.599822
23968 1 0.211725 0.966602 0.624791
23974 1 0.211725 0.466602 0.624791
23977 1 0.239864 0.296559 0.624793
23983 1 0.239864 0.796559 0.624793
23426 1 0.267952 0.640231 0.574848
23428 1 0.296082 0.969924 0.574853
23429 1 0.282048 0.297305 0.59983
23430 1 0.310178 0.625681 0.59985
23432 1 0.267952 0.140231 0.574848
23434 1 0.296082 0.469924 0.574853
23435 1 0.282048 0.797305 0.59983
23436 1 0.310178 0.125681 0.59985
23978 1 0.267998 0.625832 0.624802
23980 1 0.296128 0.954214 0.624823
23984 1 0.267998 0.125832 0.624802
23986 1 0.296128 0.454214 0.624823
23437 1 0.32421 0.298511 0.574871
23438 1 0.352333 0.625505 0.57491
23439 1 0.338302 0.952676 0.599889
23440 1 0.380449 0.950136 0.574981
23441 1 0.366418 0.277797 0.599955
23443 1 0.32421 0.798511 0.574871
23444 1 0.352333 0.125505 0.57491
23445 1 0.338302 0.452676 0.599889
23446 1 0.380449 0.450137 0.574981
23447 1 0.366418 0.777797 0.599955
23989 1 0.324251 0.281434 0.624861
23990 1 0.352368 0.607168 0.624921
23992 1 0.380477 0.931064 0.625011
23995 1 0.324251 0.781434 0.624861
23996 1 0.352368 0.107168 0.624921
23998 1 0.380477 0.431064 0.625011
23442 1 0.394526 0.600425 0.60006
23448 1 0.394526 0.100425 0.60006
23449 1 0.408558 0.271293 0.575104
23450 1 0.43666 0.587598 0.575312
23451 1 0.422629 0.919954 0.600217
23455 1 0.408558 0.771292 0.575104
23456 1 0.43666 0.0876003 0.575313
23457 1 0.422629 0.419955 0.600217
24001 1 0.408582 0.252836 0.625135
24002 1 0.436693 0.572538 0.625281
24007 1 0.408582 0.752836 0.625135
24008 1 0.436693 0.0725368 0.625281
23452 1 0.464782 0.899001 0.575572
23453 1 0.450743 0.23645 0.600405
23454 1 0.478892 0.551222 0.600534
23458 1 0.464782 0.398998 0.575572
23459 1 0.450743 0.736449 0.600405
23460 1 0.478892 0.0512237 0.600534
24004 1 0.464824 0.890809 0.625405
24010 1 0.464824 0.390811 0.625405
23461 1 0.492976 0.208423 0.575678
23467 1 0.492976 0.708427 0.575678
24013 1 0.492974 0.208508 0.625453
24019 1 0.492974 0.708505 0.625453
23945 3 0.0285356 0.308912 0.64988
23946 1 0.0567963 0.642035 0.649891
23951 3 0.0285356 0.808913 0.64988
23952 1 0.0567963 0.142035 0.649891
24496 3 0.0426091 0.971073 0.67486
24502 3 0.0426091 0.471072 0.67486
23955 1 0.0850551 0.972531 0.649877
23957 1 0.113199 0.303644 0.649822
23961 1 0.0850551 0.472531 0.649877
23963 1 0.113199 0.803644 0.649822
24505 1 0.0709022 0.303071 0.674944
24506 1 0.0992118 0.63358 0.674802
24508 1 0.127335 0.964725 0.674745
24511 1 0.0709022 0.803071 0.674944
24512 1 0.0992118 0.13358 0.674802
24514 1 0.127335 0.464725 0.674745
23958 1 0.141367 0.634789 0.649779
23964 1 0.141367 0.134789 0.649779
23967 1 0.169521 0.965673 0.64976
23973 1 0.169521 0.465673 0.64976
24517 1 0.155472 0.295647 0.674723
24518 1 0.18361 0.626103 0.674719
24523 1 0.155472 0.795647 0.674723
24524 1 0.18361 0.126103 0.674719
23969 1 0.197667 0.296094 0.649756
23970 1 0.225805 0.62598 0.64976
23975 1 0.197667 0.796094 0.649756
23976 1 0.225805 0.12598 0.64976
23979 1 0.253938 0.955239 0.649772
23985 1 0.253938 0.455239 0.649772
24520 1 0.211742 0.956009 0.674726
24526 1 0.211742 0.456009 0.674726
24529 1 0.239871 0.285336 0.674739
24535 1 0.239871 0.785336 0.674739
23981 1 0.282066 0.283733 0.649793
23982 1 0.310189 0.611267 0.649828
23987 1 0.282066 0.783733 0.649793
23988 1 0.310189 0.111267 0.649828
24530 1 0.267998 0.613992 0.67476
24532 1 0.296121 0.941854 0.674792
24536 1 0.267998 0.113992 0.67476
24538 1 0.296121 0.441854 0.674792
23991 1 0.338307 0.937611 0.649881
23993 1 0.366418 0.262551 0.649958
23997 1 0.338307 0.437611 0.649881
23999 1 0.366418 0.762551 0.649958
24541 1 0.324239 0.268753 0.674839
24542 1 0.352353 0.59455 0.674904
24544 1 0.380464 0.91916 0.67499
24547 1 0.324239 0.768753 0.674839
24548 1 0.352353 0.0945502 0.674904
24550 1 0.380464 0.41916 0.67499
24560 1 0.436697 0.0651152 0.675185
24559 1 0.408577 0.742612 0.675088
23994 1 0.394526 0.585938 0.65006
24000 1 0.394526 0.085938 0.65006
24003 1 0.422637 0.907823 0.650178
24009 1 0.422637 0.407823 0.650178