ITEM: TIMESTEP
43
ITEM: NUMBER OF ATOMS
2350
ITEM: BOX BOUNDS ss pp ss
-4.1117772832000000e+01 4.1700535187000000e+01
-4.1208122699999999e-01 4.5329187729999996e+00
-4.0828690244000001e+01 3.9987505448000000e+01
ITEM: ATOMS id type xs ys zs
16806 3 0.310007 0.761507 0.0253797
16812 3 0.310007 0.261507 0.0253797
17354 3 0.267786 0.753806 0.0503597
17356 3 0.295933 0.0912293 0.0503597
17360 3 0.267786 0.253806 0.0503597
17362 3 0.295933 0.591229 0.0503597
16815 3 0.338154 0.0990524 0.0253797
16816 3 0.380375 0.10658 0.00039968
16817 3 0.366301 0.436753 0.0253797
16821 3 0.338154 0.599052 0.0253797
16822 3 0.380375 0.60658 0.00039968
16823 3 0.366301 0.936754 0.0253797
17365 3 0.32408 0.428851 0.0503597
17366 3 0.352228 0.766661 0.0503597
17368 1 0.380466 0.105885 0.0506852
17371 3 0.32408 0.928851 0.0503597
17372 3 0.352228 0.266661 0.0503597
17374 1 0.380466 0.605885 0.0506852
16818 3 0.394448 0.774593 0.0253797
16824 3 0.394448 0.274593 0.0253797
16825 3 0.408522 0.444272 0.00039968
16826 3 0.436669 0.782052 0.00039968
16827 3 0.422595 0.112546 0.0253797
16831 3 0.408522 0.944272 0.00039968
16832 3 0.436669 0.282052 0.00039968
16833 3 0.422595 0.612545 0.0253797
17377 1 0.408632 0.44341 0.0507119
17378 1 0.436711 0.781203 0.0505784
17383 1 0.408632 0.94341 0.0507118
17384 1 0.436711 0.281203 0.0505784
16828 3 0.464816 0.119892 0.00039968
16829 3 0.450743 0.450584 0.0253797
16830 3 0.47889 0.788679 0.0253797
16834 3 0.464816 0.619892 0.00039968
16835 3 0.450743 0.950585 0.0253797
16836 3 0.47889 0.288679 0.0253797
17380 1 0.464833 0.119445 0.0505596
17386 1 0.464833 0.619445 0.0505596
16837 3 0.492963 0.457765 0.00039968
16843 3 0.492963 0.957765 0.00039968
17389 1 0.492963 0.457771 0.0505565
17395 1 0.492963 0.957771 0.0505565
17894 3 0.183345 0.738335 0.10032
17895 3 0.169271 0.0674551 0.1253
17900 3 0.183345 0.238336 0.10032
17901 3 0.169271 0.567455 0.1253
17346 3 0.225565 0.746033 0.0753397
17352 3 0.225565 0.246034 0.0753397
17355 3 0.253713 0.0832505 0.0753397
17361 3 0.253713 0.58325 0.0753397
17896 3 0.211492 0.0752734 0.10032
17897 3 0.197418 0.404315 0.1253
17898 1 0.225766 0.7422 0.125522
17902 3 0.211492 0.575273 0.10032
17903 3 0.197418 0.904315 0.1253
17904 1 0.225766 0.2422 0.125522
17905 3 0.239639 0.412463 0.10032
17907 1 0.253918 0.0798161 0.12562
17911 3 0.239639 0.912463 0.10032
17913 1 0.253918 0.579816 0.12562
17357 3 0.28186 0.420699 0.0753397
17358 1 0.310093 0.75923 0.0756441
17363 3 0.28186 0.9207 0.0753397
17364 1 0.310093 0.25923 0.0756441
17906 1 0.26792 0.750906 0.100564
17908 1 0.296101 0.0886359 0.100676
17909 1 0.282003 0.417564 0.125561
17910 1 0.310142 0.755732 0.125561
17912 1 0.26792 0.250906 0.100564
17914 1 0.296101 0.588636 0.100676
17915 1 0.282003 0.917564 0.125561
17916 1 0.310142 0.255732 0.125561
17367 1 0.3383 0.0970238 0.075637
17369 1 0.366396 0.435135 0.0755838
17373 1 0.3383 0.597024 0.075637
17375 1 0.366396 0.935135 0.0755838
17917 1 0.324213 0.426586 0.100578
17918 1 0.352339 0.76479 0.100548
17919 1 0.338269 0.093933 0.125532
17920 1 0.380461 0.103144 0.10056
17921 1 0.366393 0.43243 0.125522
17923 1 0.324213 0.926586 0.100578
17924 1 0.352339 0.26479 0.100548
17925 1 0.338269 0.593933 0.125532
17926 1 0.380461 0.603144 0.10056
17927 1 0.366393 0.93243 0.125522
17370 1 0.394542 0.77365 0.0756235
17376 1 0.394542 0.27365 0.0756235
17379 1 0.422676 0.111884 0.0755768
17385 1 0.422676 0.611884 0.0755768
17922 1 0.394525 0.771197 0.125524
17928 1 0.394525 0.271197 0.125524
17929 1 0.408604 0.441793 0.100567
17930 1 0.436732 0.780412 0.100537
17931 1 0.42266 0.110163 0.12552
17935 1 0.408604 0.941793 0.100567
17936 1 0.436732 0.280412 0.100537
17937 1 0.42266 0.610163 0.12552
17381 1 0.450786 0.450068 0.0755208
17382 1 0.478903 0.78853 0.0755044
17387 1 0.450786 0.950068 0.0755208
17388 1 0.478903 0.28853 0.0755044
17932 1 0.464847 0.119051 0.10051
17933 1 0.450786 0.449187 0.125505
17934 1 0.478906 0.788272 0.125495
17938 1 0.464847 0.619051 0.10051
17939 1 0.450786 0.949187 0.125505
17940 1 0.478906 0.288272 0.125495
17941 1 0.492964 0.457816 0.100503
17947 1 0.492964 0.957816 0.100503
18436 3 0.127051 0.0599347 0.15028
18437 3 0.112977 0.388909 0.17526
18442 3 0.127051 0.559934 0.15028
18443 3 0.112977 0.88891 0.17526
18438 3 0.141124 0.725247 0.17526
18444 3 0.141124 0.225248 0.17526
18445 3 0.155198 0.396419 0.15028
18446 3 0.183345 0.733171 0.15028
18447 1 0.169482 0.0629238 0.175481
18451 3 0.155198 0.896419 0.15028
18452 3 0.183345 0.233171 0.15028
18453 1 0.169482 0.562924 0.175481
18448 1 0.211655 0.0708636 0.150543
18449 1 0.197549 0.399406 0.175438
18450 1 0.225665 0.736831 0.175439
18454 1 0.211655 0.570864 0.150543
18455 1 0.197549 0.899406 0.175438
18456 1 0.225665 0.236831 0.175439
18457 1 0.239769 0.408441 0.150506
18459 1 0.253809 0.07452 0.175449
18463 1 0.239769 0.908441 0.150506
18465 1 0.253809 0.57452 0.175449
18458 1 0.267917 0.746316 0.150519
18460 1 0.29605 0.0842953 0.150508
18461 1 0.28195 0.412582 0.17545
18462 1 0.310089 0.750926 0.175445
18464 1 0.267917 0.246316 0.150519
18466 1 0.29605 0.584295 0.150508
18467 1 0.28195 0.912582 0.17545
18468 1 0.310089 0.250926 0.175445
18469 1 0.324186 0.422678 0.150496
18470 1 0.352316 0.761269 0.150485
18471 1 0.338228 0.0896372 0.175444
18472 1 0.380449 0.100177 0.150487
18473 1 0.366365 0.428703 0.175447
18475 1 0.324186 0.922678 0.150496
18476 1 0.352316 0.261269 0.150485
18477 1 0.338228 0.589637 0.175444
18478 1 0.380449 0.600177 0.150487
18479 1 0.366365 0.928703 0.175447
18474 1 0.394502 0.768129 0.175454
18480 1 0.394502 0.268129 0.175454
18481 1 0.408583 0.439387 0.150492
18482 1 0.436715 0.778793 0.150491
18483 1 0.422638 0.107858 0.175462
18487 1 0.408583 0.939387 0.150492
18488 1 0.436715 0.278793 0.150491
18489 1 0.422638 0.607858 0.175462
18484 1 0.464842 0.118299 0.150486
18485 1 0.450771 0.447791 0.175466
18486 1 0.4789 0.787835 0.175468
18490 1 0.464842 0.618299 0.150486
18491 1 0.450771 0.947791 0.175466
18492 1 0.4789 0.287835 0.175468
18493 1 0.492965 0.457856 0.150484
18499 1 0.492965 0.957856 0.150484
18986 3 0.0989034 0.717799 0.20024
18987 3 0.0848298 0.046629 0.22522
18988 3 0.127051 0.0539629 0.20024
18989 3 0.112977 0.382593 0.22522
18992 3 0.0989034 0.2178 0.20024
18993 3 0.0848298 0.546628 0.22522
18994 3 0.127051 0.553962 0.20024
18995 3 0.112977 0.882593 0.22522
18990 1 0.141263 0.719002 0.225345
18996 1 0.141263 0.219002 0.225345
18997 1 0.155418 0.390887 0.200491
18998 1 0.183492 0.727916 0.200419
18999 1 0.169374 0.0559869 0.225362
19003 1 0.155418 0.890887 0.200491
19004 1 0.183492 0.227916 0.200419
19005 1 0.169374 0.555987 0.225362
19000 1 0.211591 0.0649468 0.200384
19001 1 0.197504 0.392989 0.22535
19002 1 0.225619 0.730284 0.225327
19006 1 0.211591 0.564947 0.200384
19007 1 0.197504 0.892989 0.22535
19008 1 0.225619 0.230284 0.225327
19009 1 0.239712 0.402498 0.200382
19011 1 0.253748 0.068016 0.225323
19015 1 0.239712 0.902498 0.200382
19017 1 0.253748 0.568016 0.225323
19010 1 0.267846 0.740428 0.200384
19012 1 0.295988 0.0787709 0.200388
19013 1 0.281884 0.406238 0.225325
19014 1 0.310026 0.744945 0.225329
19016 1 0.267846 0.240428 0.200384
19018 1 0.295988 0.578771 0.200388
19019 1 0.281884 0.906238 0.225325
19020 1 0.310026 0.244945 0.225329
19021 1 0.32413 0.417519 0.200391
19022 1 0.352272 0.756704 0.200397
19023 1 0.33817 0.0841624 0.225339
19024 1 0.380413 0.0963216 0.200409
19025 1 0.366316 0.423906 0.225353
19027 1 0.32413 0.917519 0.200391
19028 1 0.352272 0.256704 0.200397
19029 1 0.33817 0.584162 0.225339
19030 1 0.380413 0.596322 0.200409
19031 1 0.366316 0.923906 0.225353
19026 1 0.394461 0.764159 0.225372
19032 1 0.394461 0.264159 0.225372
19033 1 0.408554 0.436338 0.200423
19034 1 0.436693 0.776676 0.200435
19035 1 0.422607 0.104868 0.225392
19039 1 0.408554 0.936338 0.200423
19040 1 0.436693 0.276676 0.200435
19041 1 0.422607 0.604868 0.225392
19036 1 0.464829 0.11723 0.200443
19037 1 0.450751 0.445935 0.225409
19038 1 0.478893 0.787229 0.225417
19042 1 0.464829 0.61723 0.200443
19043 1 0.450751 0.945935 0.225409
19044 1 0.478893 0.287229 0.225417
19045 1 0.492964 0.457893 0.200445
19051 1 0.492964 0.957893 0.200445
19530 3 0.0566827 0.704221 0.27518
19536 3 0.0566827 0.204221 0.27518
20080 3 0.0426091 0.0330423 0.30016
20086 3 0.0426091 0.533042 0.30016
19537 3 0.0707563 0.375426 0.2502
19538 3 0.0989034 0.71117 0.2502
19539 3 0.0848298 0.0397263 0.27518
19540 1 0.127183 0.0472932 0.250293
19541 1 0.113111 0.375599 0.27526
19543 3 0.0707563 0.875426 0.2502
19544 3 0.0989034 0.21117 0.2502
19545 3 0.0848298 0.539726 0.27518
19546 1 0.127183 0.547293 0.250293
19547 1 0.113111 0.875599 0.27526
20089 3 0.0707563 0.368296 0.30016
20090 1 0.0990471 0.703899 0.30023
20092 1 0.127116 0.0397639 0.300188
20095 3 0.0707563 0.868296 0.30016
20096 1 0.0990471 0.203899 0.30023
20098 1 0.127116 0.539764 0.300188
19542 1 0.141182 0.711783 0.275226
19548 1 0.141182 0.211783 0.275226
19549 1 0.155262 0.383815 0.25028
19550 1 0.183397 0.720758 0.25029
19551 1 0.169303 0.0483583 0.275227
19555 1 0.155262 0.883815 0.25028
19556 1 0.183397 0.220758 0.25029
19557 1 0.169303 0.548358 0.275227
20101 1 0.155229 0.375981 0.30018
20102 1 0.183342 0.712587 0.300173
20107 1 0.155229 0.875981 0.30018
20108 1 0.183342 0.212587 0.300173
19552 1 0.211522 0.0578988 0.250278
19553 1 0.197425 0.385298 0.275224
19554 1 0.225552 0.722589 0.275215
19558 1 0.211522 0.557899 0.250278
19559 1 0.197425 0.885298 0.275224
19560 1 0.225552 0.222589 0.275215
19561 1 0.23965 0.395405 0.250269
19563 1 0.25368 0.0603249 0.275207
19567 1 0.23965 0.895405 0.250269
19569 1 0.25368 0.560325 0.275207
20104 1 0.211462 0.0495941 0.300165
20110 1 0.211462 0.549594 0.300165
20113 1 0.239584 0.387029 0.300154
20119 1 0.239584 0.887029 0.300154
19562 1 0.267781 0.733409 0.250264
19564 1 0.295919 0.0719554 0.250265
19565 1 0.281812 0.398611 0.275202
19566 1 0.309951 0.737536 0.275205
19568 1 0.267781 0.233409 0.250264
19570 1 0.295919 0.571955 0.250265
19571 1 0.281812 0.898611 0.275202
19572 1 0.309951 0.237536 0.275205
20114 1 0.267709 0.724984 0.300144
20116 1 0.295841 0.0635773 0.30014
20120 1 0.267709 0.224984 0.300144
20122 1 0.295841 0.563577 0.30014
19573 1 0.324063 0.411091 0.250273
19574 1 0.35221 0.750851 0.250288
19575 1 0.338097 0.0771679 0.275217
19576 1 0.38036 0.0912482 0.25031
19577 1 0.366249 0.417572 0.275238
19579 1 0.324063 0.911091 0.250273
19580 1 0.35221 0.250851 0.250288
19581 1 0.338097 0.577168 0.275217
19582 1 0.38036 0.591248 0.25031
19583 1 0.366249 0.917572 0.275238
20125 1 0.323981 0.402931 0.300145
20126 1 0.352129 0.743155 0.30016
20128 1 0.380287 0.0843588 0.300187
20131 1 0.323981 0.902931 0.300145
20132 1 0.352129 0.243155 0.30016
20134 1 0.380287 0.584359 0.300187
20144 1 0.436622 0.269766 0.300262
20143 1 0.408452 0.926589 0.300224
19578 1 0.394405 0.758782 0.275268
19584 1 0.394405 0.258782 0.275268
19585 1 0.408512 0.432268 0.250337
19586 1 0.436664 0.773828 0.250362
19587 1 0.422565 0.100761 0.275301
19591 1 0.408512 0.932268 0.250337
19592 1 0.436664 0.273828 0.250362
19593 1 0.422565 0.600761 0.275301
20137 1 0.408452 0.426589 0.300224
20138 1 0.436622 0.769766 0.300262
20146 1 0.464793 0.613683 0.300292
19588 1 0.464815 0.115785 0.25038
19589 1 0.450725 0.443373 0.275329
19590 1 0.478885 0.786399 0.275346
19594 1 0.464815 0.615785 0.25038
19595 1 0.450725 0.943373 0.275329
19596 1 0.478885 0.286399 0.275346
20140 1 0.464793 0.113683 0.300292
19597 1 0.492964 0.457948 0.250386
19603 1 0.492964 0.957948 0.250386
20149 1 0.492965 0.458016 0.300303
20155 1 0.492965 0.958016 0.300303
20640 1 0.056971 0.188139 0.375176
20639 3 0.0285356 0.854416 0.3751
20638 3 0.0426091 0.525611 0.35012
20636 3 0.014462 0.190876 0.35012
20634 1 0.056971 0.688139 0.375176
20633 3 0.0285356 0.354416 0.3751
20632 3 0.0426091 0.0256116 0.35012
20630 3 0.014462 0.690876 0.35012
20081 3 0.0285356 0.361918 0.32514
20082 3 0.0566827 0.696914 0.32514
20087 3 0.0285356 0.861918 0.32514
20088 3 0.0566827 0.196915 0.32514
20651 1 0.113118 0.858838 0.375109
20650 1 0.127145 0.531146 0.35012
20649 1 0.085047 0.523486 0.37514
20648 1 0.099068 0.195493 0.350139
20647 1 0.0710752 0.860248 0.35019
20645 1 0.113118 0.358838 0.375109
20644 1 0.127145 0.0311463 0.35012
20643 1 0.085047 0.0234864 0.37514
20642 1 0.099068 0.695493 0.350139
20641 1 0.0710752 0.360248 0.35019
20091 1 0.0850024 0.0321688 0.325201
20093 1 0.113072 0.367711 0.325157
20097 1 0.0850024 0.532169 0.325201
20099 1 0.113072 0.867711 0.325157
20661 1 0.16928 0.530315 0.375065
20660 1 0.183326 0.203382 0.350088
20659 1 0.155229 0.867103 0.350103
20655 1 0.16928 0.030315 0.375065
20654 1 0.183326 0.703382 0.350088
20653 1 0.155229 0.367103 0.350103
20652 1 0.141191 0.194424 0.375085
20646 1 0.141191 0.694424 0.375085
20094 1 0.141175 0.70359 0.325144
20100 1 0.141175 0.20359 0.325144
20103 1 0.169277 0.0398504 0.325132
20109 1 0.169277 0.53985 0.325132
20673 1 0.253566 0.540264 0.375002
20671 1 0.239533 0.877161 0.350053
20667 1 0.253566 0.0402637 0.375002
20665 1 0.239533 0.377161 0.350053
20664 1 0.225467 0.20315 0.375024
20663 1 0.197372 0.866532 0.375045
20662 1 0.211427 0.540044 0.350071
20658 1 0.225467 0.703149 0.375024
20657 1 0.197372 0.366532 0.375045
20656 1 0.211427 0.0400443 0.350071
20105 1 0.197386 0.376499 0.325121
20106 1 0.225498 0.713574 0.325108
20111 1 0.197386 0.876499 0.325121
20112 1 0.225498 0.213574 0.325108
20115 1 0.253615 0.051139 0.325094
20121 1 0.253615 0.551139 0.325094
20676 1 0.309779 0.21657 0.374963
20675 1 0.281669 0.878007 0.374981
20674 1 0.29576 0.553214 0.350022
20672 1 0.267643 0.214834 0.350036
20670 1 0.309779 0.71657 0.374963
20669 1 0.281669 0.378007 0.374981
20668 1 0.29576 0.0532136 0.350022
20666 1 0.267643 0.714834 0.350036
20117 1 0.281736 0.389309 0.325083
20118 1 0.309866 0.728234 0.325078
20123 1 0.281736 0.889309 0.325083
20124 1 0.309866 0.228234 0.325078
20687 1 0.36604 0.897234 0.37495
20686 1 0.380184 0.574709 0.350038
20685 1 0.337901 0.556201 0.37495
20684 1 0.352026 0.232897 0.350018
20683 1 0.323886 0.89249 0.350015
20681 1 0.36604 0.397234 0.37495
20680 1 0.380184 0.0747091 0.350038
20679 1 0.337901 0.0562011 0.37495
20678 1 0.352026 0.732897 0.350018
20677 1 0.323886 0.39249 0.350015
20127 1 0.338006 0.0680786 0.325083
20129 1 0.366158 0.409022 0.325101
20133 1 0.338006 0.568079 0.325083
20135 1 0.366158 0.909022 0.325101
20697 1 0.422394 0.585245 0.375011
20696 1 0.436553 0.263431 0.350127
20695 1 0.40836 0.918177 0.350076
20691 1 0.422394 0.0852451 0.375011
20690 1 0.436553 0.763431 0.350127
20689 1 0.40836 0.418177 0.350076
20688 1 0.394203 0.240093 0.374969
20682 1 0.394203 0.740093 0.374969
20145 1 0.422501 0.594749 0.325177
20130 1 0.394324 0.751225 0.325134
20136 1 0.394324 0.251225 0.325134
20139 1 0.422501 0.0947488 0.325177
20700 1 0.478845 0.282781 0.375109
20699 1 0.450612 0.93296 0.375068
20698 1 0.464757 0.610279 0.350171
20694 1 0.478845 0.78278 0.375109
20693 1 0.450612 0.432959 0.375068
20692 1 0.464757 0.110279 0.350171
20148 1 0.478871 0.285087 0.325247
20147 1 0.450685 0.93948 0.325221
20142 1 0.478871 0.785086 0.325247
20141 1 0.450685 0.439479 0.325221
20707 1 0.492965 0.95808 0.350189
20701 1 0.492965 0.458081 0.350189
21192 1 0.0569804 0.180301 0.425074
21191 3 0.0285356 0.846512 0.42506
21190 3 0.0426091 0.517689 0.40008
21189 3 0.00038843 0.512443 0.42506
21188 3 0.014462 0.183354 0.40008
21186 1 0.0569804 0.680301 0.425074
21185 3 0.0285356 0.346511 0.42506
21184 3 0.0426091 0.0176892 0.40008
21183 3 0.00038843 0.0124432 0.42506
21182 3 0.014462 0.683354 0.40008
21203 1 0.113115 0.849551 0.425052
21202 1 0.127151 0.52192 0.400071
21201 1 0.0850181 0.514739 0.425059
21200 1 0.0990625 0.186766 0.400094
21199 1 0.0709651 0.851879 0.400107
21197 1 0.113115 0.349551 0.425052
21196 1 0.127151 0.0219198 0.400071
21195 1 0.0850181 0.0147395 0.425059
21194 1 0.0990625 0.686766 0.400094
21193 1 0.0709651 0.351879 0.400107
21213 1 0.169295 0.519851 0.425014
21212 1 0.183329 0.193115 0.400027
21211 1 0.15524 0.857375 0.400049
21207 1 0.169295 0.0198506 0.425014
21206 1 0.183329 0.693115 0.400027
21205 1 0.15524 0.357375 0.400049
21204 1 0.141205 0.184592 0.425035
21198 1 0.141205 0.684592 0.425035
21225 1 0.253554 0.527544 0.424941
21223 1 0.239508 0.865699 0.39998
21219 1 0.253554 0.0275438 0.424941
21217 1 0.239508 0.365699 0.39998
21216 1 0.225468 0.191245 0.424967
21215 1 0.197382 0.855381 0.424992
21214 1 0.211418 0.529195 0.400004
21210 1 0.225468 0.691245 0.424967
21209 1 0.197382 0.355381 0.424992
21208 1 0.211418 0.0291954 0.400004
21228 1 0.309725 0.202058 0.424882
21227 1 0.281639 0.864413 0.424913
21226 1 0.295696 0.54049 0.399929
21224 1 0.2676 0.202741 0.399955
21222 1 0.309725 0.702058 0.424882
21221 1 0.281639 0.364413 0.424913
21220 1 0.295696 0.0404899 0.399929
21218 1 0.2676 0.702741 0.399955
21239 1 0.365917 0.880939 0.42482
21238 1 0.380046 0.560839 0.399877
21237 1 0.337816 0.540758 0.424849
21236 1 0.351911 0.21914 0.399884
21235 1 0.323797 0.879181 0.399904
21233 1 0.365917 0.380939 0.42482
21232 1 0.380046 0.0608394 0.399877
21231 1 0.337816 0.0407584 0.424849
21230 1 0.351911 0.71914 0.399884
21229 1 0.323797 0.379181 0.399904
21249 1 0.422209 0.569066 0.424795
21248 1 0.436427 0.252533 0.399934
21247 1 0.408214 0.904984 0.39989
21243 1 0.422209 0.0690653 0.424795
21242 1 0.436427 0.752533 0.399934
21241 1 0.408214 0.404984 0.39989
21240 1 0.394042 0.223293 0.424798
21234 1 0.394042 0.723293 0.424798
21252 1 0.478787 0.27796 0.424907
21251 1 0.450455 0.920337 0.424837
21250 1 0.464685 0.603992 0.399997
21246 1 0.478787 0.777959 0.424907
21245 1 0.450455 0.420337 0.424837
21244 1 0.464685 0.103992 0.399997
21259 1 0.492963 0.958131 0.400025
21253 1 0.492963 0.458131 0.400025
21744 1 0.0570482 0.171421 0.475044
21743 3 0.0285356 0.838336 0.47502
21742 1 0.0428916 0.508843 0.450107
21741 3 0.00038843 0.504719 0.47502
21740 3 0.014462 0.175518 0.45004
21738 1 0.0570482 0.671421 0.475044
21737 3 0.0285356 0.338336 0.47502
21736 1 0.0428916 0.00884313 0.450107
21735 3 0.00038843 0.00471974 0.47502
21734 3 0.014462 0.675517 0.45004
22286 3 0.014462 0.667505 0.5
22288 1 0.0428767 0.0001391 0.499999
22292 3 0.014462 0.167506 0.5
22294 1 0.0428767 0.500139 0.499999
21755 1 0.113159 0.839571 0.475004
21754 1 0.127177 0.511966 0.450019
21753 1 0.0850819 0.505343 0.475018
21752 1 0.0990927 0.177345 0.450031
21751 1 0.0710009 0.842972 0.450043
21749 1 0.113159 0.339571 0.475004
21748 1 0.127177 0.0119663 0.450019
21747 1 0.0850819 0.0053428 0.475018
21746 1 0.0990927 0.677345 0.450031
21745 1 0.0710009 0.342972 0.450043
22297 1 0.0710357 0.333876 0.5
22298 1 0.0991348 0.667597 0.499991
22300 1 0.127221 0.00149396 0.499979
22303 1 0.0710357 0.833876 0.5
22304 1 0.0991348 0.167597 0.499991
22306 1 0.127221 0.501494 0.499979
21765 1 0.169336 0.50846 0.474973
21764 1 0.183357 0.181778 0.449982
21763 1 0.155268 0.846782 0.450003
21759 1 0.169336 0.00845995 0.474973
21758 1 0.183357 0.681778 0.449982
21757 1 0.155268 0.346782 0.450003
21756 1 0.141247 0.173964 0.474991
21750 1 0.141247 0.673964 0.474991
22309 1 0.155317 0.33551 0.499963
22310 1 0.183412 0.669567 0.499944
22315 1 0.155317 0.83551 0.499963
22316 1 0.183412 0.169567 0.499944
21777 1 0.2536 0.512945 0.474905
21775 1 0.239528 0.852548 0.449934
21771 1 0.2536 0.0129452 0.474905
21769 1 0.239528 0.352548 0.449934
21768 1 0.225515 0.177885 0.474929
21767 1 0.197426 0.84308 0.474952
21766 1 0.211443 0.517005 0.449959
21762 1 0.225515 0.677885 0.474929
21761 1 0.197426 0.34308 0.474952
21760 1 0.211443 0.0170051 0.449959
22312 1 0.211506 0.00368069 0.499923
22318 1 0.211506 0.503681 0.499923
22321 1 0.2396 0.337895 0.499902
22327 1 0.2396 0.837895 0.499902
21780 1 0.309758 0.184284 0.474848
21779 1 0.281682 0.848359 0.474878
21778 1 0.295689 0.52504 0.449876
21776 1 0.26761 0.188507 0.449907
21774 1 0.309758 0.684284 0.474848
21773 1 0.281682 0.348359 0.474878
21772 1 0.295689 0.0250404 0.449876
21770 1 0.26761 0.688507 0.449907
22322 1 0.26769 0.672254 0.49988
22324 1 0.295776 0.00681833 0.499857
22328 1 0.26769 0.172254 0.49988
22330 1 0.295776 0.506818 0.499857
21791 1 0.365887 0.858739 0.474772
21790 1 0.379923 0.541014 0.449761
21789 1 0.337827 0.520948 0.474813
21788 1 0.351842 0.200846 0.449803
21787 1 0.323765 0.862376 0.449842
21785 1 0.365887 0.358739 0.474772
21784 1 0.379923 0.0410143 0.449761
21783 1 0.337827 0.0209477 0.474813
21782 1 0.351842 0.700846 0.449803
21781 1 0.323765 0.362376 0.449842
22333 1 0.323856 0.341696 0.499831
22334 1 0.351922 0.677056 0.499803
22336 1 0.379968 0.0131931 0.49977
22339 1 0.323856 0.841696 0.499831
22340 1 0.351922 0.177056 0.499803
22342 1 0.379968 0.513193 0.49977
21801 1 0.421983 0.541211 0.474644
21800 1 0.436173 0.23176 0.44967
21799 1 0.408023 0.883868 0.449717
21795 1 0.421983 0.0412113 0.474644
21794 1 0.436173 0.73176 0.44967
21793 1 0.408023 0.383868 0.449717
21792 1 0.393937 0.198378 0.474719
21786 1 0.393937 0.698377 0.474719
22345 1 0.407972 0.350677 0.499724
22346 1 0.435937 0.690777 0.499656
22351 1 0.407972 0.850678 0.499724
22352 1 0.435937 0.190776 0.499656
21804 1 0.478585 0.262502 0.474596
21803 1 0.450098 0.891809 0.474521
21802 1 0.464487 0.589537 0.449709
21798 1 0.478585 0.762502 0.474596
21797 1 0.450098 0.391808 0.474521
21796 1 0.464487 0.0895374 0.449709
21811 1 0.49296 0.958179 0.449798
21805 1 0.49296 0.458179 0.449798
22363 1 0.492957 0.958217 0.499547
22357 1 0.492957 0.458217 0.499547
22348 1 0.463989 0.0413312 0.499496
22354 1 0.463989 0.541331 0.499496
22287 3 0.00038843 0.996907 0.52498
22289 3 0.0285356 0.330053 0.52498
22290 1 0.0570599 0.662579 0.524956
22293 3 0.00038843 0.496906 0.52498
22295 3 0.0285356 0.830054 0.52498
22296 1 0.0570599 0.162579 0.524956
22838 3 0.014462 0.659476 0.54996
22840 1 0.042907 0.991773 0.549892
22844 3 0.014462 0.159477 0.54996
22846 1 0.042907 0.491773 0.549892
22299 1 0.0851037 0.995896 0.524974
22301 1 0.113192 0.329417 0.524967
22305 1 0.0851037 0.495896 0.524974
22307 1 0.113192 0.829417 0.524967
22849 1 0.0710327 0.324788 0.549958
22850 1 0.0991446 0.65785 0.54995
22852 1 0.12725 0.990975 0.549936
22855 1 0.0710327 0.824787 0.549958
22856 1 0.0991446 0.15785 0.54995
22858 1 0.12725 0.490975 0.549936
22302 1 0.14129 0.662999 0.524951
22308 1 0.14129 0.162999 0.524951
22311 1 0.169392 0.996547 0.524933
22317 1 0.169392 0.496547 0.524933
22861 1 0.155363 0.32407 0.549919
22862 1 0.183474 0.65705 0.549902
22867 1 0.155363 0.82407 0.549919
22868 1 0.183474 0.15705 0.549902
22313 1 0.197495 0.330052 0.524915
22314 1 0.225598 0.663514 0.524896
22319 1 0.197495 0.830052 0.524915
22320 1 0.225598 0.163514 0.524896
22323 1 0.2537 0.99694 0.524877
22329 1 0.2537 0.49694 0.524877
22864 1 0.211586 0.989888 0.549885
22870 1 0.211586 0.489888 0.549885
22873 1 0.239698 0.322547 0.549868
22879 1 0.239698 0.822547 0.549868
22325 1 0.2818 0.330314 0.524859
22326 1 0.309896 0.663614 0.524842
22331 1 0.2818 0.830314 0.524859
22332 1 0.309896 0.163614 0.524842
22874 1 0.267812 0.654975 0.549853
22876 1 0.295924 0.987056 0.549841
22880 1 0.267812 0.154975 0.549853
22882 1 0.295924 0.487056 0.549841
22335 1 0.337987 0.996805 0.524827
22337 1 0.366066 0.32975 0.524818
22341 1 0.337987 0.496805 0.524827
22343 1 0.366066 0.82975 0.524818
22885 1 0.324035 0.318628 0.549835
22886 1 0.352144 0.649349 0.549839
22888 1 0.380248 0.978535 0.549862
22891 1 0.324035 0.818628 0.549835
22892 1 0.352144 0.149349 0.549839
22894 1 0.380248 0.478536 0.549862
22338 1 0.394127 0.662143 0.524815
22344 1 0.394127 0.162143 0.524815
22347 1 0.422163 0.99312 0.524831
22353 1 0.422163 0.49312 0.524831
22897 1 0.408351 0.304774 0.549922
22898 1 0.436475 0.624765 0.550053
22903 1 0.408351 0.804773 0.549922
22904 1 0.436475 0.124766 0.550053
22915 1 0.492953 0.708395 0.55091
22909 1 0.492953 0.208394 0.55091
22349 1 0.450246 0.320313 0.524899
22350 1 0.478519 0.624839 0.525176
22355 1 0.450246 0.820313 0.524899
22356 1 0.478519 0.124839 0.525176
22900 1 0.464616 0.929303 0.550408
22906 1 0.464616 0.429302 0.550408
22839 3 0.00038843 0.989152 0.57494
22841 3 0.0285356 0.321841 0.57494
22842 1 0.0570103 0.654155 0.574938
22845 3 0.00038843 0.489152 0.57494
22847 3 0.0285356 0.821842 0.57494
22848 1 0.0570103 0.154155 0.574938
23390 3 0.014462 0.651591 0.59992
23392 1 0.0426763 0.984615 0.599978
23393 3 0.0285356 0.313868 0.6249
23394 1 0.0570251 0.645186 0.624848
23396 3 0.014462 0.151592 0.59992
23398 1 0.0426763 0.484615 0.599978
23399 3 0.0285356 0.813868 0.6249
23400 1 0.0570251 0.145186 0.624848
22851 1 0.0850783 0.986716 0.574932
22853 1 0.113203 0.319444 0.574914
22857 1 0.0850783 0.486716 0.574932
22859 1 0.113203 0.819444 0.574914
23401 1 0.0710345 0.316119 0.5999
23402 1 0.0991579 0.64839 0.599885
23403 1 0.0851316 0.977608 0.624857
23404 1 0.127276 0.9807 0.599879
23405 1 0.113234 0.309745 0.624857
23407 1 0.0710345 0.816119 0.5999
23408 1 0.0991579 0.14839 0.599885
23409 1 0.0851316 0.477608 0.624857
23410 1 0.127276 0.4807 0.599879
23411 1 0.113234 0.809745 0.624857
22854 1 0.141322 0.652138 0.574901
22860 1 0.141322 0.152138 0.574901
22863 1 0.169442 0.984681 0.574886
22869 1 0.169442 0.484681 0.574886
23406 1 0.141343 0.641698 0.624849
23412 1 0.141343 0.141698 0.624849
23413 1 0.155398 0.312914 0.599867
23414 1 0.183522 0.644888 0.599852
23415 1 0.169468 0.973414 0.624834
23419 1 0.155398 0.812914 0.599867
23420 1 0.183522 0.144888 0.599852
23421 1 0.169468 0.473414 0.624834
22865 1 0.197561 0.317027 0.574869
22866 1 0.225682 0.649101 0.574854
22871 1 0.197561 0.817027 0.574869
22872 1 0.225682 0.149101 0.574854
22875 1 0.253805 0.980824 0.57484
22881 1 0.253805 0.480824 0.57484
23416 1 0.211648 0.976544 0.599836
23417 1 0.197597 0.304783 0.624817
23418 1 0.225731 0.635712 0.624803
23422 1 0.211648 0.476544 0.599836
23423 1 0.197597 0.804783 0.624817
23424 1 0.225731 0.135712 0.624803
23425 1 0.239777 0.307782 0.599823
23427 1 0.253866 0.966078 0.624794
23431 1 0.239777 0.807782 0.599823
23433 1 0.253866 0.466078 0.624794
22877 1 0.281928 0.312058 0.574831
22878 1 0.310051 0.642587 0.574829
22883 1 0.281928 0.812058 0.574831
22884 1 0.310051 0.142587 0.574829
23426 1 0.267907 0.638471 0.599815
23428 1 0.296038 0.9684 0.599815
23429 1 0.282 0.295701 0.624794
23430 1 0.310132 0.624325 0.624808
23432 1 0.267907 0.138471 0.599815
23434 1 0.296038 0.4684 0.599815
23435 1 0.282 0.795701 0.624794
23436 1 0.310132 0.124325 0.624808
22887 1 0.338174 0.972041 0.57484
22889 1 0.366294 0.299777 0.574873
22893 1 0.338174 0.472041 0.57484
22895 1 0.366294 0.799776 0.574873
23437 1 0.324167 0.297243 0.599829
23438 1 0.352292 0.624492 0.599863
23439 1 0.338259 0.95157 0.624842
23440 1 0.380411 0.94938 0.599931
23441 1 0.366379 0.276939 0.624904
23443 1 0.324167 0.797243 0.599829
23444 1 0.352292 0.124492 0.599863
23445 1 0.338259 0.45157 0.624842
23446 1 0.380411 0.449379 0.599931
23447 1 0.366379 0.77694 0.624904
22890 1 0.39441 0.624651 0.574942
22896 1 0.39441 0.124651 0.574942
22899 1 0.422524 0.944653 0.57508
22905 1 0.422524 0.444653 0.57508
23442 1 0.39449 0.5998 0.625007
23448 1 0.39449 0.0997997 0.625007
23449 1 0.408523 0.270767 0.600052
23450 1 0.436628 0.587292 0.600257
23451 1 0.422596 0.919546 0.625161
23455 1 0.408523 0.770768 0.600052
23456 1 0.436628 0.0872916 0.600257
23457 1 0.422596 0.419546 0.625161
23467 1 0.49295 0.708479 0.600619
23461 1 0.49295 0.20848 0.600619
22901 1 0.450633 0.256423 0.575366
22902 1 0.478792 0.558876 0.575728
22907 1 0.450633 0.756424 0.575366
22908 1 0.478792 0.0588768 0.575728
23452 1 0.464753 0.898888 0.600514
23453 1 0.450712 0.236247 0.625347
23454 1 0.478864 0.551205 0.625474
23458 1 0.464753 0.398889 0.600514
23459 1 0.450712 0.736247 0.625347
23460 1 0.478864 0.0512045 0.625474
23942 3 0.014462 0.643994 0.64988
23944 3 0.0426091 0.976003 0.64988
23945 3 0.0285356 0.306273 0.67486
23946 3 0.0566827 0.638017 0.67486
23948 3 0.014462 0.143994 0.64988
23950 3 0.0426091 0.476002 0.64988
23951 3 0.0285356 0.806274 0.67486
23952 3 0.0566827 0.138017 0.67486
23953 1 0.0711179 0.307548 0.649817
23954 1 0.0991529 0.639325 0.649843
23955 1 0.085041 0.969662 0.674794
23956 1 0.127272 0.971069 0.649831
23957 1 0.113161 0.30107 0.67481
23959 1 0.0711179 0.807548 0.649817
23960 1 0.0991529 0.139325 0.649843
23961 1 0.085041 0.469662 0.674794
23962 1 0.127272 0.471069 0.649831
23963 1 0.113161 0.80107 0.67481
23958 1 0.141309 0.632307 0.674794
23964 1 0.141309 0.132307 0.674794
23965 1 0.155396 0.302566 0.649816
23966 1 0.183531 0.633731 0.649797
23967 1 0.169449 0.96329 0.674777
23971 1 0.155396 0.802566 0.649816
23972 1 0.183531 0.133731 0.649797
23973 1 0.169449 0.46329 0.674777
23968 1 0.211668 0.96447 0.649781
23969 1 0.197592 0.293916 0.674757
23970 1 0.225735 0.62405 0.674744
23974 1 0.211668 0.46447 0.649781
23975 1 0.197592 0.793916 0.674757
23976 1 0.225735 0.12405 0.674744
23977 1 0.239807 0.294668 0.64977
23979 1 0.253876 0.953549 0.674741
23983 1 0.239807 0.794668 0.64977
23985 1 0.253876 0.453549 0.674741
23978 1 0.267944 0.624171 0.649769
23980 1 0.296079 0.952786 0.649782
23981 1 0.282013 0.282264 0.674751
23982 1 0.310143 0.61001 0.674779
23984 1 0.267944 0.124171 0.64977
23986 1 0.296079 0.452786 0.649782
23987 1 0.282013 0.782264 0.674751
23988 1 0.310143 0.11001 0.674779
23989 1 0.324207 0.280246 0.649813
23990 1 0.352328 0.606214 0.649869
23991 1 0.338266 0.936572 0.674828
23992 1 0.38044 0.930335 0.649956
23993 1 0.366381 0.261725 0.674902
23995 1 0.324207 0.780246 0.649813
23996 1 0.352328 0.106214 0.649869
23997 1 0.338266 0.436572 0.674828
23998 1 0.38044 0.430335 0.649956
23999 1 0.366381 0.761725 0.674902
23994 1 0.394492 0.585321 0.675001
24000 1 0.394492 0.0853213 0.675001
24001 1 0.408549 0.252321 0.650077
24002 1 0.436662 0.572229 0.650221
24003 1 0.422606 0.907408 0.675118
24007 1 0.408549 0.75232 0.650077
24008 1 0.436662 0.0722291 0.650221
24009 1 0.422606 0.407408 0.675118
24019 1 0.492948 0.708577 0.65039
24013 1 0.492948 0.208576 0.650391
24004 1 0.464796 0.890701 0.650343
24005 1 0.450732 0.228322 0.675227
24006 1 0.478873 0.548586 0.675293