ITEM: TIMESTEP
39
ITEM: NUMBER OF ATOMS
2358
ITEM: BOX BOUNDS ss pp ss
-4.1117772832000000e+01 4.1700535187000000e+01
-4.1208122699999999e-01 4.5329187729999996e+00
-4.1249271465000000e+01 4.1585714086999999e+01
ITEM: ATOMS id type xs ys zs
17354 3 0.267786 0.754173 0.0491324
17356 3 0.295933 0.0915677 0.0491324
17360 3 0.267786 0.254174 0.0491324
17362 3 0.295933 0.591567 0.0491324
16815 3 0.338154 0.0993118 0.0247612
16817 3 0.366301 0.436974 0.0247612
16821 3 0.338154 0.599311 0.0247612
16823 3 0.366301 0.936974 0.0247612
17365 3 0.32408 0.429155 0.0491324
17366 3 0.352228 0.766926 0.0491324
17368 1 0.380461 0.104391 0.0491659
17371 3 0.32408 0.929156 0.0491324
17372 3 0.352228 0.266926 0.0491324
17374 1 0.380461 0.604391 0.0491659
16818 3 0.394448 0.77477 0.0247612
16824 3 0.394448 0.274771 0.0247612
16825 3 0.408522 0.444413 0.00038994
16826 3 0.436669 0.782149 0.00038994
16827 3 0.422595 0.112677 0.0247612
16831 3 0.408522 0.944413 0.00038994
16832 3 0.436669 0.282149 0.00038994
16833 3 0.422595 0.612677 0.0247612
17377 1 0.408652 0.443939 0.0494607
17378 1 0.436794 0.781608 0.0494828
17383 1 0.408652 0.943939 0.0494607
17384 1 0.436794 0.281608 0.0494828
16828 3 0.464816 0.119944 0.00038994
16829 3 0.450743 0.450667 0.0247612
16830 3 0.47889 0.788711 0.0247612
16834 3 0.464816 0.619944 0.00038994
16835 3 0.450743 0.950667 0.0247612
16836 3 0.47889 0.288711 0.0247612
17380 1 0.464858 0.119479 0.0493525
17386 1 0.464858 0.619479 0.0493525
16837 3 0.492963 0.457771 0.00038994
16843 3 0.492963 0.957771 0.00038994
17389 1 0.492964 0.457739 0.0493382
17395 1 0.492964 0.957739 0.0493382
17895 3 0.169271 0.0679918 0.122246
17901 3 0.169271 0.567991 0.122246
17346 3 0.225565 0.746468 0.0735036
17352 3 0.225565 0.246469 0.0735036
17355 3 0.253713 0.0836645 0.0735036
17361 3 0.253713 0.583664 0.0735036
17896 3 0.211492 0.0757547 0.0978748
17897 3 0.197418 0.404843 0.122246
17898 1 0.22552 0.740963 0.122338
17902 3 0.211492 0.575754 0.0978748
17903 3 0.197418 0.904843 0.122246
17904 1 0.22552 0.240963 0.122338
17905 3 0.239639 0.412926 0.0978748
17907 1 0.253841 0.0794891 0.122554
17911 3 0.239639 0.912926 0.0978748
17913 1 0.253841 0.579489 0.122554
17357 3 0.28186 0.421086 0.0735036
17358 1 0.310104 0.75816 0.0735285
17363 3 0.28186 0.921087 0.0735036
17364 1 0.310104 0.25816 0.0735285
17906 1 0.267942 0.75072 0.0981583
17908 1 0.296128 0.0882839 0.0981533
17909 1 0.281984 0.417445 0.122477
17910 1 0.310132 0.755525 0.122453
17912 1 0.267942 0.25072 0.0981583
17914 1 0.296128 0.588284 0.0981533
17915 1 0.281984 0.917445 0.122477
17916 1 0.310132 0.255525 0.122453
17367 1 0.338313 0.0975078 0.0738159
17369 1 0.366495 0.43519 0.0737984
17373 1 0.338313 0.597508 0.0738159
17375 1 0.366495 0.93519 0.0737983
17917 1 0.324232 0.426314 0.0981127
17918 1 0.352382 0.764913 0.0981314
17919 1 0.338268 0.0938628 0.122465
17920 1 0.380504 0.103246 0.0981185
17921 1 0.366411 0.432515 0.122483
17923 1 0.324232 0.926314 0.0981127
17924 1 0.352382 0.264913 0.0981314
17925 1 0.338268 0.593863 0.122465
17926 1 0.380504 0.603246 0.0981185
17927 1 0.366411 0.932515 0.122483
17370 1 0.394583 0.773401 0.0737692
17376 1 0.394583 0.273401 0.0737692
17379 1 0.422711 0.112027 0.0738023
17385 1 0.422711 0.612027 0.0738023
17922 1 0.394539 0.771253 0.12249
17928 1 0.394539 0.271253 0.12249
17929 1 0.408623 0.441761 0.0981403
17930 1 0.436754 0.780507 0.0981465
17931 1 0.422669 0.110185 0.1225
17935 1 0.408623 0.941761 0.0981403
17936 1 0.436754 0.280507 0.0981465
17937 1 0.422669 0.610185 0.1225
17381 1 0.450827 0.450342 0.0737537
17382 1 0.478919 0.788548 0.0737018
17387 1 0.450827 0.950342 0.0737537
17388 1 0.478919 0.288548 0.0737018
17932 1 0.464868 0.119153 0.0981178
17933 1 0.450797 0.44923 0.122499
17934 1 0.478914 0.788243 0.122489
17938 1 0.464868 0.619153 0.0981178
17939 1 0.450797 0.94923 0.122499
17940 1 0.478914 0.288243 0.122489
17941 1 0.492968 0.45773 0.0980996
17947 1 0.492968 0.95773 0.0980996
18437 3 0.112977 0.389523 0.170988
18443 3 0.112977 0.889524 0.170988
18438 3 0.141124 0.725867 0.170988
18444 3 0.141124 0.225868 0.170988
18445 3 0.155198 0.396998 0.146617
18446 3 0.183345 0.733746 0.146617
18447 1 0.169228 0.061485 0.171063
18451 3 0.155198 0.896998 0.146617
18452 3 0.183345 0.233747 0.146617
18453 1 0.169228 0.561485 0.171063
18448 1 0.21166 0.0713965 0.146897
18449 1 0.197541 0.399559 0.171281
18450 1 0.225665 0.737029 0.171219
18454 1 0.21166 0.571396 0.146897
18455 1 0.197541 0.899559 0.171281
18456 1 0.225665 0.237029 0.171219
18457 1 0.239742 0.408198 0.146853
18459 1 0.253795 0.0745167 0.171171
18463 1 0.239742 0.908198 0.146853
18465 1 0.253795 0.574517 0.171171
18458 1 0.267874 0.746104 0.146825
18460 1 0.296028 0.0842081 0.14681
18461 1 0.281933 0.41253 0.171151
18462 1 0.310073 0.750888 0.171146
18464 1 0.267874 0.246104 0.146825
18466 1 0.296028 0.584208 0.14681
18467 1 0.281933 0.91253 0.171151
18468 1 0.310073 0.250888 0.171146
18469 1 0.324168 0.422585 0.146806
18470 1 0.35231 0.761272 0.146819
18471 1 0.338215 0.0896088 0.171158
18472 1 0.380449 0.10024 0.146838
18473 1 0.366357 0.428711 0.171178
18475 1 0.324168 0.922585 0.146806
18476 1 0.35231 0.261272 0.146819
18477 1 0.338215 0.589609 0.171158
18478 1 0.380449 0.60024 0.146838
18479 1 0.366357 0.928711 0.171178
18474 1 0.394498 0.768153 0.1712
18480 1 0.394498 0.268153 0.1712
18481 1 0.408585 0.439419 0.146854
18482 1 0.436719 0.778801 0.146865
18483 1 0.422637 0.107865 0.171218
18487 1 0.408585 0.939419 0.146854
18488 1 0.436719 0.278801 0.146865
18489 1 0.422637 0.607865 0.171218
18484 1 0.464848 0.118277 0.146867
18485 1 0.450774 0.447776 0.171229
18486 1 0.478906 0.787779 0.171233
18490 1 0.464848 0.618277 0.146867
18491 1 0.450774 0.947776 0.171229
18492 1 0.478906 0.287779 0.171233
18493 1 0.492971 0.457761 0.146864
18499 1 0.492971 0.957761 0.146864
18986 3 0.0989034 0.718447 0.19536
18987 3 0.0848298 0.0473066 0.219731
18988 3 0.127051 0.0546219 0.19536
18989 3 0.112977 0.383287 0.219731
18992 3 0.0989034 0.218447 0.19536
18993 3 0.0848298 0.547306 0.219731
18994 3 0.127051 0.554621 0.19536
18995 3 0.112977 0.883288 0.219731
19537 3 0.0707563 0.37613 0.244102
19538 3 0.0989034 0.711896 0.244102
19540 1 0.12719 0.0479456 0.244228
19543 3 0.0707563 0.87613 0.244102
19544 3 0.0989034 0.211896 0.244102
19546 1 0.12719 0.547946 0.244228
18990 1 0.141335 0.719774 0.219992
18996 1 0.141335 0.219774 0.219992
18997 1 0.155387 0.391675 0.195611
18998 1 0.183456 0.727908 0.195568
18999 1 0.169408 0.0564552 0.21993
19003 1 0.155387 0.891675 0.195611
19004 1 0.183456 0.227908 0.195568
19005 1 0.169408 0.556455 0.21993
19549 1 0.155301 0.384563 0.244252
19550 1 0.183431 0.721242 0.244239
19555 1 0.155301 0.884563 0.244252
19556 1 0.183431 0.221242 0.244239
19000 1 0.211572 0.0652142 0.195546
19001 1 0.197509 0.393235 0.219886
19002 1 0.225628 0.730572 0.219863
19006 1 0.211572 0.565214 0.195546
19007 1 0.197509 0.893235 0.219886
19008 1 0.225628 0.230572 0.219863
19009 1 0.239714 0.402726 0.195526
19011 1 0.253758 0.0682578 0.219842
19015 1 0.239714 0.902726 0.195526
19017 1 0.253758 0.568258 0.219842
19552 1 0.211546 0.05825 0.244206
19558 1 0.211546 0.55825 0.244206
19561 1 0.239669 0.395697 0.244185
19567 1 0.239669 0.895697 0.244185
19010 1 0.267844 0.740536 0.195497
19012 1 0.295981 0.0787972 0.195488
19013 1 0.281891 0.406368 0.21983
19014 1 0.310027 0.744999 0.21983
19016 1 0.267844 0.240536 0.195497
19018 1 0.295981 0.578797 0.195488
19019 1 0.281891 0.906368 0.21983
19020 1 0.310027 0.244999 0.21983
19562 1 0.267797 0.733626 0.244171
19564 1 0.29593 0.07208 0.244165
19568 1 0.267797 0.233626 0.244171
19570 1 0.29593 0.57208 0.244165
19021 1 0.324121 0.41752 0.195495
19022 1 0.352263 0.756694 0.195513
19023 1 0.338168 0.0841728 0.219843
19024 1 0.380407 0.0963171 0.195537
19025 1 0.366313 0.423893 0.219867
19027 1 0.324121 0.91752 0.195495
19028 1 0.352263 0.256694 0.195513
19029 1 0.338168 0.584173 0.219843
19030 1 0.380407 0.596317 0.195537
19031 1 0.366313 0.923893 0.219867
19573 1 0.324068 0.41114 0.244172
19574 1 0.352212 0.750859 0.244191
19576 1 0.380361 0.0912432 0.244219
19579 1 0.324068 0.91114 0.244172
19580 1 0.352212 0.250859 0.244191
19582 1 0.380361 0.591243 0.244219
19026 1 0.39446 0.764147 0.219895
19032 1 0.39446 0.264147 0.219895
19033 1 0.408551 0.436336 0.195561
19034 1 0.436694 0.776666 0.195581
19035 1 0.422608 0.104859 0.219922
19039 1 0.408551 0.936336 0.195561
19040 1 0.436694 0.276666 0.195581
19041 1 0.422608 0.604859 0.219922
19585 1 0.408514 0.432259 0.244252
19586 1 0.436668 0.773807 0.244283
19591 1 0.408514 0.932259 0.244252
19592 1 0.436668 0.273807 0.244283
19036 1 0.464834 0.117204 0.195593
19037 1 0.450755 0.445921 0.219944
19038 1 0.4789 0.787202 0.219955
19042 1 0.464834 0.617204 0.195593
19043 1 0.450755 0.945921 0.219944
19044 1 0.4789 0.287202 0.219955
19588 1 0.464821 0.11575 0.244304
19594 1 0.464821 0.61575 0.244304
19045 1 0.492972 0.457839 0.195596
19051 1 0.492972 0.957839 0.195596
19597 1 0.492973 0.457894 0.24431
19603 1 0.492973 0.957894 0.24431
19530 3 0.0566827 0.704946 0.268473
19536 3 0.0566827 0.204947 0.268473
20080 3 0.0426091 0.0337847 0.292845
20086 3 0.0426091 0.533784 0.292845
19539 3 0.0848298 0.0404791 0.268473
19541 1 0.113122 0.376263 0.268559
19545 3 0.0848298 0.540479 0.268473
19547 1 0.113122 0.876263 0.268559
20089 3 0.0707563 0.36907 0.292845
20090 1 0.0990792 0.704567 0.292904
20092 1 0.127152 0.0403274 0.292881
20095 3 0.0707563 0.86907 0.292845
20096 1 0.0990792 0.204567 0.292904
20098 1 0.127152 0.540327 0.292881
19542 1 0.141204 0.712396 0.268551
19548 1 0.141204 0.212396 0.268551
19551 1 0.169338 0.0489721 0.268566
19557 1 0.169338 0.548972 0.268566
20101 1 0.155265 0.376513 0.292891
20102 1 0.183379 0.713099 0.292889
20107 1 0.155265 0.876513 0.292891
20108 1 0.183379 0.213099 0.292889
19553 1 0.19746 0.385777 0.26855
19554 1 0.225581 0.722946 0.268531
19559 1 0.19746 0.885777 0.26855
19560 1 0.225581 0.222946 0.268531
19563 1 0.253703 0.0606055 0.268513
19569 1 0.253703 0.560605 0.268513
20119 1 0.239612 0.887372 0.292858
20104 1 0.211496 0.0500218 0.292876
20110 1 0.211496 0.550022 0.292876
20113 1 0.239612 0.387372 0.292858
19565 1 0.28183 0.39881 0.268502
19566 1 0.309964 0.737651 0.268501
19571 1 0.28183 0.89881 0.268502
19572 1 0.309964 0.237651 0.268501
20122 1 0.295858 0.563762 0.292834
20120 1 0.267732 0.225246 0.292842
20114 1 0.267732 0.725246 0.292842
20116 1 0.295858 0.0637621 0.292834
20134 1 0.380293 0.584371 0.292882
20132 1 0.352138 0.243219 0.292852
20131 1 0.323993 0.903049 0.292836
20128 1 0.380293 0.0843707 0.292882
19575 1 0.338105 0.0772248 0.268513
20126 1 0.352138 0.743219 0.292852
19577 1 0.366254 0.417597 0.268537
20125 1 0.323993 0.403049 0.292836
19581 1 0.338105 0.577225 0.268513
19583 1 0.366254 0.917597 0.268537
20144 1 0.436627 0.269701 0.292963
20143 1 0.408457 0.926552 0.292922
20138 1 0.436627 0.769701 0.292963
20137 1 0.408457 0.426552 0.292922
19578 1 0.394409 0.758779 0.268572
19584 1 0.394409 0.258779 0.268572
19587 1 0.422569 0.100728 0.268609
19593 1 0.422569 0.600728 0.268609
20146 1 0.4648 0.613606 0.292995
20140 1 0.4648 0.113607 0.292995
19589 1 0.450731 0.443315 0.268641
19590 1 0.478892 0.786326 0.268659
19595 1 0.450731 0.943315 0.268641
19596 1 0.478892 0.286326 0.268659
20149 1 0.492973 0.457931 0.293005
20155 1 0.492973 0.95793 0.293005
20640 1 0.0567649 0.190267 0.365869
20639 3 0.0285356 0.855219 0.365958
20638 3 0.0426091 0.52641 0.341587
20634 1 0.0567649 0.690267 0.365869
20633 3 0.0285356 0.355218 0.365958
20632 3 0.0426091 0.0264102 0.341587
20081 3 0.0285356 0.362672 0.317216
20082 3 0.0566827 0.697703 0.317216
20087 3 0.0285356 0.862672 0.317216
20088 3 0.0566827 0.197704 0.317216
20651 1 0.11312 0.859595 0.365971
20650 1 0.127192 0.531687 0.341603
20649 1 0.0850436 0.524458 0.365963
20648 1 0.0991319 0.1961 0.341613
20647 1 0.0710699 0.860634 0.341619
20645 1 0.11312 0.359595 0.365971
20644 1 0.127192 0.0316871 0.341603
20643 1 0.0850436 0.0244582 0.365963
20642 1 0.0991319 0.6961 0.341613
20641 1 0.0710699 0.360634 0.341619
20091 1 0.0851583 0.0326813 0.317267
20093 1 0.113149 0.368113 0.317236
20097 1 0.0851583 0.532681 0.317267
20099 1 0.113149 0.868113 0.317236
20661 1 0.169297 0.530887 0.365946
20660 1 0.183355 0.203869 0.341581
20659 1 0.155263 0.867595 0.341593
20655 1 0.169297 0.0308866 0.365946
20654 1 0.183355 0.703869 0.341581
20653 1 0.155263 0.367595 0.341593
20652 1 0.141205 0.195067 0.36596
20646 1 0.141205 0.695067 0.36596
20094 1 0.141225 0.704026 0.317237
20100 1 0.141225 0.204026 0.317237
20103 1 0.169315 0.0403178 0.317234
20109 1 0.169315 0.540318 0.317234
20673 1 0.253583 0.540666 0.365883
20671 1 0.239556 0.877557 0.341544
20667 1 0.253583 0.0406657 0.365883
20665 1 0.239556 0.377557 0.341544
20664 1 0.225485 0.203618 0.365907
20663 1 0.19739 0.867052 0.365928
20662 1 0.211453 0.5405 0.341564
20658 1 0.225485 0.703618 0.365907
20657 1 0.19739 0.367052 0.365928
20656 1 0.211453 0.0404996 0.341564
20121 1 0.253639 0.551465 0.317189
20105 1 0.19742 0.376955 0.317225
20106 1 0.225528 0.71397 0.317208
20111 1 0.19742 0.876955 0.317225
20112 1 0.225528 0.21397 0.317208
20115 1 0.253639 0.0514655 0.317189
20676 1 0.309792 0.216817 0.365837
20675 1 0.281684 0.878342 0.365858
20674 1 0.295775 0.55348 0.341505
20672 1 0.267662 0.215171 0.341522
20670 1 0.309792 0.716817 0.365837
20669 1 0.281684 0.378342 0.365858
20668 1 0.295775 0.0534796 0.341505
20666 1 0.267662 0.715171 0.341522
20124 1 0.309881 0.228423 0.317165
20123 1 0.281756 0.889567 0.317173
20118 1 0.309881 0.728423 0.317165
20117 1 0.281756 0.389567 0.317173
20687 1 0.366048 0.897301 0.365824
20686 1 0.380191 0.574728 0.34152
20685 1 0.337911 0.556357 0.365823
20684 1 0.352036 0.232994 0.341499
20683 1 0.323898 0.892673 0.341495
20681 1 0.366048 0.3973 0.365824
20680 1 0.380191 0.0747282 0.34152
20679 1 0.337911 0.0563565 0.365823
20678 1 0.352036 0.732994 0.341499
20677 1 0.323898 0.392673 0.341495
20135 1 0.366167 0.909067 0.317188
20133 1 0.338017 0.568196 0.317169
20129 1 0.366167 0.409067 0.317188
20127 1 0.338017 0.068196 0.317169
20697 1 0.422401 0.58521 0.365887
20696 1 0.43656 0.263376 0.34161
20695 1 0.408366 0.918146 0.341559
20691 1 0.422401 0.0852096 0.365887
20690 1 0.43656 0.763376 0.34161
20689 1 0.408366 0.418147 0.341559
20688 1 0.39421 0.240094 0.365844
20682 1 0.39421 0.740093 0.365844
20145 1 0.422507 0.594695 0.317268
20139 1 0.422507 0.0946952 0.317268
20136 1 0.39433 0.251209 0.317223
20130 1 0.39433 0.751209 0.317223
20700 1 0.478853 0.282728 0.365983
20699 1 0.450619 0.932908 0.365943
20698 1 0.464764 0.61021 0.341655
20694 1 0.478853 0.782728 0.365983
20693 1 0.450619 0.432907 0.365943
20692 1 0.464764 0.11021 0.341655
20148 1 0.478879 0.28501 0.31734
20147 1 0.450691 0.939411 0.317313
20142 1 0.478879 0.785009 0.31734
20141 1 0.450691 0.439411 0.317313
20707 1 0.492973 0.958011 0.341671
20701 1 0.492973 0.458011 0.341671
21742 1 0.0428969 0.509758 0.439146
21740 3 0.014462 0.176345 0.439072
21736 1 0.0428969 0.00975781 0.439146
21734 3 0.014462 0.676344 0.439072
21192 1 0.0570118 0.181297 0.414742
21191 3 0.0285356 0.84735 0.414701
21190 3 0.0426091 0.518534 0.390329
21189 3 0.00038843 0.513236 0.414701
21188 3 0.014462 0.184154 0.390329
21186 1 0.0570118 0.681297 0.414742
21185 3 0.0285356 0.34735 0.414701
21184 3 0.0426091 0.0185343 0.390329
21183 3 0.00038843 0.0132367 0.414701
21182 3 0.014462 0.684154 0.390329
21754 1 0.12717 0.512654 0.439043
21752 1 0.0990904 0.178121 0.43905
21751 1 0.071012 0.843897 0.439082
21748 1 0.12717 0.0126543 0.439043
21746 1 0.0990904 0.678121 0.43905
21745 1 0.071012 0.343897 0.439082
21203 1 0.113099 0.850298 0.414677
21202 1 0.127138 0.522697 0.390321
21201 1 0.0850055 0.51558 0.414667
21200 1 0.0990212 0.18769 0.390313
21199 1 0.0709099 0.852976 0.390297
21197 1 0.113099 0.350298 0.414677
21196 1 0.127138 0.0226972 0.390321
21195 1 0.0850055 0.0155803 0.414667
21194 1 0.0990212 0.68769 0.390313
21193 1 0.0709099 0.352976 0.390297
21764 1 0.183355 0.182382 0.439025
21763 1 0.155264 0.847422 0.439037
21758 1 0.183355 0.682382 0.439025
21757 1 0.155264 0.347422 0.439037
21213 1 0.169293 0.520487 0.414666
21212 1 0.183336 0.193706 0.390297
21211 1 0.15524 0.858047 0.390312
21207 1 0.169293 0.020487 0.414666
21206 1 0.183336 0.693706 0.390297
21205 1 0.15524 0.358047 0.390312
21204 1 0.141196 0.185286 0.414676
21198 1 0.141196 0.685286 0.414676
21775 1 0.239532 0.853058 0.438984
21769 1 0.239532 0.353058 0.438984
21766 1 0.211445 0.51757 0.439007
21760 1 0.211445 0.01757 0.439007
21225 1 0.253562 0.528011 0.414602
21223 1 0.23952 0.866174 0.390252
21219 1 0.253562 0.0280107 0.414602
21217 1 0.23952 0.366174 0.390252
21216 1 0.225475 0.191779 0.414628
21215 1 0.197385 0.855963 0.41465
21214 1 0.211428 0.529731 0.390277
21210 1 0.225475 0.691779 0.414628
21209 1 0.197385 0.355963 0.41465
21208 1 0.211428 0.0297305 0.390277
21778 1 0.295695 0.525381 0.438925
21776 1 0.267616 0.18894 0.438957
21772 1 0.295695 0.0253811 0.438925
21770 1 0.267616 0.68894 0.438957
21228 1 0.309733 0.202338 0.41454
21227 1 0.281647 0.864799 0.414572
21226 1 0.295706 0.540808 0.390196
21224 1 0.267612 0.203144 0.390225
21222 1 0.309733 0.702337 0.41454
21221 1 0.281647 0.364798 0.414572
21220 1 0.295706 0.0408078 0.390196
21218 1 0.267612 0.703144 0.390225
21790 1 0.379929 0.541086 0.438812
21788 1 0.351848 0.20098 0.438853
21787 1 0.323772 0.862604 0.438891
21784 1 0.379929 0.0410863 0.438812
21782 1 0.351848 0.700981 0.438853
21781 1 0.323772 0.362604 0.438891
21239 1 0.365924 0.88102 0.414479
21238 1 0.380053 0.560878 0.390144
21237 1 0.337823 0.540926 0.414508
21236 1 0.351919 0.219256 0.390151
21235 1 0.323806 0.879397 0.390171
21233 1 0.365924 0.38102 0.414479
21232 1 0.380053 0.0608786 0.390144
21231 1 0.337823 0.0409263 0.414508
21230 1 0.351919 0.719256 0.390151
21229 1 0.323806 0.379397 0.390171
21800 1 0.436179 0.231801 0.438722
21799 1 0.408029 0.883907 0.438769
21794 1 0.436179 0.731802 0.438722
21793 1 0.408029 0.383908 0.438769
21249 1 0.422215 0.56907 0.414455
21248 1 0.436433 0.252506 0.390202
21247 1 0.40822 0.904978 0.390158
21243 1 0.422215 0.0690687 0.414455
21242 1 0.436433 0.752507 0.390202
21241 1 0.40822 0.404979 0.390158
21240 1 0.394047 0.22332 0.414458
21234 1 0.394047 0.72332 0.414458
21802 1 0.464495 0.589577 0.43876
21796 1 0.464495 0.0895786 0.43876
21252 1 0.478796 0.277964 0.414564
21251 1 0.450462 0.920341 0.414497
21250 1 0.464692 0.603966 0.390264
21246 1 0.478796 0.777962 0.414564
21245 1 0.450462 0.42034 0.414497
21244 1 0.464692 0.103967 0.390264
21811 1 0.49297 0.958195 0.438847
21805 1 0.49297 0.458197 0.438847
21259 1 0.492973 0.958103 0.39029
21253 1 0.492973 0.458104 0.39029
21744 1 0.0570523 0.172299 0.463471
21743 3 0.0285356 0.839196 0.463443
21741 3 0.00038843 0.50553 0.463443
21738 1 0.0570523 0.672299 0.463471
21737 3 0.0285356 0.339195 0.463443
21735 3 0.00038843 0.00553097 0.463443
22286 3 0.014462 0.668343 0.487814
22288 1 0.0428773 0.000992366 0.487814
22292 3 0.014462 0.168344 0.487814
22294 1 0.0428773 0.500992 0.487814
21755 1 0.113159 0.840306 0.463423
21753 1 0.085087 0.506191 0.463441
21749 1 0.113159 0.340306 0.463423
21747 1 0.085087 0.00619124 0.463441
22297 1 0.0710383 0.334722 0.487815
22298 1 0.099137 0.668387 0.487806
22300 1 0.127222 0.00220215 0.487793
22303 1 0.0710383 0.834722 0.487815
22304 1 0.099137 0.168387 0.487806
22306 1 0.127222 0.502202 0.487793
21765 1 0.169335 0.509069 0.463401
21759 1 0.169335 0.00906884 0.463401
21756 1 0.141244 0.174623 0.463412
21750 1 0.141244 0.674623 0.463412
22309 1 0.155316 0.336147 0.48778
22310 1 0.183412 0.670162 0.487765
22315 1 0.155316 0.836147 0.48778
22316 1 0.183412 0.170162 0.487765
21777 1 0.253604 0.513417 0.463344
21771 1 0.253604 0.0134173 0.463344
21768 1 0.225517 0.178421 0.463367
21767 1 0.197427 0.843657 0.463386
21762 1 0.225517 0.678421 0.463367
21761 1 0.197427 0.343657 0.463386
22312 1 0.211508 0.00423782 0.48775
22318 1 0.211508 0.504238 0.48775
22321 1 0.239603 0.338401 0.487731
22327 1 0.239603 0.838401 0.487731
21780 1 0.309763 0.184575 0.463288
21779 1 0.281687 0.848748 0.463318
21774 1 0.309763 0.684575 0.463288
21773 1 0.281687 0.348748 0.463318
22322 1 0.267695 0.672685 0.487709
22324 1 0.295781 0.0071625 0.487686
22328 1 0.267695 0.172685 0.487709
22330 1 0.295781 0.507163 0.487686
21791 1 0.365892 0.858855 0.463212
21789 1 0.337832 0.521133 0.463253
21785 1 0.365892 0.358855 0.463212
21783 1 0.337832 0.021133 0.463253
22333 1 0.32386 0.341935 0.487661
22334 1 0.351927 0.67721 0.487632
22336 1 0.379973 0.0133028 0.487598
22339 1 0.32386 0.841935 0.487661
22340 1 0.351927 0.17721 0.487632
22342 1 0.379973 0.513302 0.487598
21801 1 0.421989 0.541281 0.463086
21795 1 0.421989 0.0412806 0.463086
21792 1 0.393942 0.198453 0.46316
21786 1 0.393942 0.698452 0.46316
22345 1 0.407978 0.350767 0.487553
22346 1 0.435944 0.690873 0.487486
22351 1 0.407978 0.850767 0.487553
22352 1 0.435944 0.190872 0.487486
21804 1 0.478595 0.262565 0.463038
21803 1 0.450106 0.891888 0.462965
21798 1 0.478595 0.762564 0.463038
21797 1 0.450106 0.391886 0.462965
22348 1 0.463997 0.0414354 0.487329
22354 1 0.463997 0.541435 0.487329
22357 1 0.492967 0.458312 0.487377
22363 1 0.492967 0.958312 0.487377
22287 3 0.00038843 0.99772 0.512186
22289 3 0.0285356 0.330916 0.512186
22290 1 0.0570611 0.663414 0.512163
22293 3 0.00038843 0.49772 0.512186
22295 3 0.0285356 0.830916 0.512186
22296 1 0.0570611 0.163414 0.512163
22838 3 0.014462 0.660309 0.536557
22839 3 0.00038843 0.989953 0.560928
22840 1 0.0429078 0.992613 0.536491
22841 3 0.0285356 0.322688 0.560928
22842 1 0.0570113 0.654977 0.560927
22844 3 0.014462 0.160309 0.536557
22845 3 0.00038843 0.489953 0.560928
22846 1 0.0429078 0.492613 0.536491
22847 3 0.0285356 0.822689 0.560928
22848 1 0.0570113 0.154977 0.560927
22299 1 0.0851057 0.996704 0.51218
22301 1 0.113194 0.33017 0.512173
22305 1 0.0851057 0.496704 0.51218
22307 1 0.113194 0.83017 0.512173
22849 1 0.0710343 0.325603 0.536556
22850 1 0.0991471 0.658631 0.536548
22851 1 0.0850807 0.98751 0.560922
22852 1 0.127253 0.991692 0.536535
22853 1 0.113207 0.320191 0.560904
22855 1 0.0710343 0.825603 0.536556
22856 1 0.0991471 0.158631 0.536548
22857 1 0.0850807 0.48751 0.560922
22858 1 0.127253 0.491692 0.536535
22859 1 0.113207 0.820191 0.560904
22302 1 0.141292 0.663677 0.512159
22308 1 0.141292 0.163677 0.512159
22311 1 0.169394 0.997167 0.512144
22317 1 0.169394 0.497167 0.512144
22854 1 0.141326 0.65282 0.560892
22860 1 0.141326 0.15282 0.560892
22861 1 0.155366 0.324719 0.53652
22862 1 0.183478 0.657642 0.536506
22863 1 0.169446 0.985297 0.560879
22867 1 0.155366 0.824719 0.53652
22868 1 0.183478 0.157642 0.536506
22869 1 0.169446 0.485297 0.560879
22313 1 0.197497 0.330627 0.512129
22314 1 0.225601 0.664043 0.512113
22319 1 0.197497 0.830627 0.512129
22320 1 0.225601 0.164043 0.512113
22323 1 0.253703 0.997408 0.512096
22329 1 0.253703 0.497408 0.512096
22864 1 0.21159 0.990433 0.536491
22865 1 0.197566 0.317587 0.560866
22866 1 0.225687 0.649611 0.560853
22870 1 0.21159 0.490433 0.536491
22871 1 0.197566 0.817587 0.560866
22872 1 0.225687 0.149611 0.560853
22873 1 0.239703 0.323038 0.536477
22875 1 0.253809 0.981273 0.560841
22879 1 0.239703 0.823038 0.536477
22881 1 0.253809 0.481273 0.560841
22325 1 0.281804 0.330704 0.512078
22326 1 0.309901 0.663908 0.512061
22331 1 0.281804 0.830704 0.512078
22332 1 0.309901 0.163908 0.512061
22874 1 0.267816 0.655398 0.536463
22876 1 0.295928 0.987394 0.536451
22877 1 0.281932 0.312434 0.560832
22878 1 0.310056 0.642879 0.56083
22880 1 0.267816 0.155398 0.536463
22882 1 0.295928 0.487394 0.536451
22883 1 0.281932 0.812434 0.560832
22884 1 0.310056 0.142879 0.56083
22335 1 0.337991 0.997005 0.512047
22337 1 0.366071 0.329891 0.512036
22341 1 0.337991 0.497005 0.512047
22343 1 0.366071 0.829891 0.512036
22885 1 0.324039 0.318875 0.536445
22886 1 0.352148 0.649523 0.536447
22887 1 0.338178 0.972258 0.56084
22888 1 0.380253 0.978662 0.536468
22889 1 0.366299 0.29993 0.560869
22891 1 0.324039 0.818875 0.536445
22892 1 0.352148 0.149523 0.536447
22893 1 0.338178 0.472258 0.56084
22894 1 0.380253 0.478663 0.536468
22895 1 0.366299 0.79993 0.560869
22338 1 0.394132 0.662252 0.512031
22344 1 0.394132 0.162252 0.512031
22347 1 0.422169 0.993216 0.512045
22353 1 0.422169 0.493217 0.512045
22890 1 0.394416 0.624765 0.560935
22896 1 0.394416 0.124765 0.560935
22897 1 0.408357 0.304876 0.536524
22898 1 0.436481 0.624853 0.536651
22899 1 0.422531 0.944742 0.561067
22903 1 0.408357 0.804875 0.536524
22904 1 0.436481 0.124854 0.536651
22905 1 0.422531 0.444742 0.561067
22349 1 0.450253 0.320418 0.512111
22350 1 0.478526 0.624954 0.51238
22355 1 0.450253 0.820418 0.512111
22356 1 0.478526 0.124954 0.51238
22900 1 0.464623 0.929373 0.536996
22901 1 0.450639 0.256485 0.561345
22902 1 0.4788 0.558908 0.561697
22906 1 0.464623 0.42937 0.536996
22907 1 0.450639 0.756485 0.561345
22908 1 0.4788 0.0589103 0.561697
22909 1 0.492961 0.208414 0.537485
22915 1 0.492962 0.708417 0.537485
23390 3 0.014462 0.652401 0.585299
23392 1 0.0426768 0.985435 0.585356
23393 3 0.0285356 0.314683 0.609671
23394 1 0.0570268 0.645991 0.60962
23396 3 0.014462 0.152402 0.585299
23398 1 0.0426768 0.485435 0.585356
23399 3 0.0285356 0.814683 0.609671
23400 1 0.0570268 0.145991 0.60962
23401 1 0.0710367 0.316918 0.58528
23402 1 0.0991617 0.649153 0.585266
23403 1 0.0851357 0.978381 0.609628
23404 1 0.127281 0.98141 0.585261
23405 1 0.11324 0.310476 0.609628
23407 1 0.0710367 0.816918 0.58528
23408 1 0.0991617 0.149153 0.585266
23409 1 0.0851357 0.478381 0.609628
23410 1 0.127281 0.48141 0.585261
23411 1 0.11324 0.810476 0.609628
23406 1 0.14135 0.642369 0.609623
23412 1 0.14135 0.142369 0.609623
23413 1 0.155404 0.313559 0.585251
23414 1 0.183528 0.64547 0.585239
23415 1 0.169476 0.974021 0.609611
23419 1 0.155404 0.813559 0.585251
23420 1 0.183528 0.14547 0.585239
23421 1 0.169476 0.474021 0.609611
23416 1 0.211654 0.977073 0.585226
23417 1 0.197606 0.30533 0.609598
23418 1 0.225738 0.636197 0.609586
23422 1 0.211654 0.477073 0.585226
23423 1 0.197606 0.80533 0.609598
23424 1 0.225738 0.136197 0.609586
23425 1 0.239783 0.30825 0.585215
23427 1 0.253872 0.966503 0.609579
23431 1 0.239783 0.80825 0.585215
23433 1 0.253872 0.466503 0.609579
23426 1 0.267913 0.638876 0.585208
23428 1 0.296042 0.968725 0.585207
23429 1 0.282005 0.296055 0.609579
23430 1 0.310136 0.624601 0.609591
23432 1 0.267913 0.138876 0.585208
23434 1 0.296042 0.468725 0.585207
23435 1 0.282005 0.796055 0.609579
23436 1 0.310136 0.124601 0.609591
23437 1 0.324171 0.297494 0.585219
23438 1 0.352296 0.624678 0.585251
23439 1 0.338263 0.951782 0.609622
23440 1 0.380416 0.949509 0.585315
23441 1 0.366383 0.277096 0.609681
23443 1 0.324171 0.797493 0.585219
23444 1 0.352296 0.124678 0.585251
23445 1 0.338263 0.451782 0.609622
23446 1 0.380416 0.449508 0.585315
23447 1 0.366383 0.777096 0.609681
23442 1 0.394495 0.599909 0.609778
23448 1 0.394495 0.0999089 0.609778
23449 1 0.408529 0.270859 0.585431
23450 1 0.436635 0.587354 0.58563
23451 1 0.422602 0.91962 0.609926
23455 1 0.408529 0.77086 0.585431
23456 1 0.436635 0.0873527 0.58563
23457 1 0.422602 0.419619 0.609926
23452 1 0.46476 0.898919 0.585878
23453 1 0.45072 0.236288 0.610105
23454 1 0.478872 0.551216 0.610227
23458 1 0.46476 0.398922 0.585878
23459 1 0.45072 0.736289 0.610105
23460 1 0.478872 0.0512137 0.610227
23461 1 0.492958 0.208488 0.585979
23467 1 0.492958 0.708484 0.585979
23942 3 0.014462 0.644768 0.634042
23944 3 0.0426091 0.976817 0.634042
23945 3 0.0285356 0.307043 0.658413
23946 3 0.0566827 0.638825 0.658413
23948 3 0.014462 0.144768 0.634042
23950 3 0.0426091 0.476817 0.634042
23951 3 0.0285356 0.807044 0.658413
23952 3 0.0566827 0.138825 0.658413
24496 3 0.0426091 0.969223 0.682784
24502 3 0.0426091 0.469222 0.682784
23953 1 0.0711214 0.308338 0.63398
23954 1 0.0991617 0.64009 0.634003
23955 1 0.085054 0.970458 0.658342
23956 1 0.127282 0.971769 0.633994
23957 1 0.113176 0.301797 0.658361
23959 1 0.0711214 0.808338 0.63398
23960 1 0.0991617 0.14009 0.634003
23961 1 0.085054 0.470458 0.658342
23962 1 0.127282 0.471769 0.633994
23963 1 0.113176 0.801797 0.658361
24505 1 0.0707987 0.30075 0.682771
24506 1 0.0991149 0.632097 0.682694
24508 1 0.127229 0.963165 0.682714
24511 1 0.0707987 0.80075 0.682771
24512 1 0.0991149 0.132097 0.682694
24514 1 0.127229 0.463165 0.682714
23958 1 0.141323 0.632967 0.658351
23964 1 0.141323 0.132967 0.658351
23965 1 0.155407 0.303199 0.633983
23966 1 0.183542 0.634294 0.633969
23967 1 0.169463 0.963881 0.658339
23971 1 0.155407 0.803199 0.633983
23972 1 0.183542 0.134294 0.633969
23973 1 0.169463 0.463881 0.658339
24517 1 0.155378 0.293971 0.682704
24518 1 0.183521 0.624454 0.682691
24523 1 0.155378 0.793971 0.682704
24524 1 0.183521 0.124454 0.682691
23968 1 0.211678 0.964968 0.633956
23969 1 0.197605 0.294428 0.658325
23970 1 0.225745 0.624493 0.658315
23974 1 0.211678 0.464968 0.633956
23975 1 0.197605 0.794428 0.658325
23976 1 0.225745 0.124493 0.658315
23977 1 0.239815 0.295106 0.633948
23979 1 0.253884 0.953935 0.658312
23983 1 0.239815 0.795106 0.633948
23985 1 0.253884 0.453935 0.658312
24520 1 0.211667 0.954515 0.682679
24526 1 0.211667 0.454515 0.682679
24529 1 0.239808 0.28402 0.682675
24535 1 0.239808 0.78402 0.682675
23978 1 0.26795 0.624547 0.633947
23980 1 0.296083 0.953091 0.633959
23981 1 0.282018 0.282592 0.658322
23982 1 0.310147 0.610277 0.658346
23984 1 0.26795 0.124547 0.633947
23986 1 0.296083 0.453091 0.633959
23987 1 0.282018 0.782592 0.658322
23988 1 0.310147 0.110277 0.658346
24530 1 0.267945 0.612844 0.682682
24532 1 0.296076 0.940845 0.682703
24536 1 0.267945 0.112844 0.682682
24538 1 0.296076 0.440845 0.682703
23989 1 0.324211 0.280479 0.633987
23990 1 0.352331 0.606391 0.634038
23991 1 0.338269 0.936771 0.658391
23992 1 0.380445 0.930468 0.63412
23993 1 0.366385 0.26187 0.658459
23995 1 0.324211 0.780479 0.633987
23996 1 0.352331 0.10639 0.634038
23997 1 0.338269 0.436771 0.658391