ITEM: TIMESTEP
43
ITEM: NUMBER OF ATOMS
2340
ITEM: BOX BOUNDS ss pp ss
-4.1117772832000000e+01 4.1700535187000000e+01
-4.1208122699999999e-01 4.5329187729999996e+00
-4.0408109023000002e+01 4.0408086668999999e+01
ITEM: ATOMS id type xs ys zs
16806 3 0.310007 0.761207 0.0253797
16812 3 0.310007 0.261208 0.0253797
17354 3 0.267786 0.753432 0.0503597
17356 3 0.295933 0.0908844 0.0503597
17360 3 0.267786 0.253432 0.0503597
17362 3 0.295933 0.590884 0.0503597
16815 3 0.338154 0.098788 0.0253797
16816 3 0.380375 0.106395 0.00039968
16817 3 0.366301 0.436528 0.0253797
16821 3 0.338154 0.598787 0.0253797
16822 3 0.380375 0.606395 0.00039968
16823 3 0.366301 0.936529 0.0253797
17365 3 0.32408 0.42854 0.0503597
17366 1 0.35231 0.765761 0.0503907
17368 1 0.380502 0.105198 0.0506902
17371 3 0.32408 0.928541 0.0503597
17372 1 0.35231 0.265761 0.0503907
17374 1 0.380502 0.605198 0.0506902
16818 3 0.394448 0.774411 0.0253797
16824 3 0.394448 0.274412 0.0253797
16825 3 0.408522 0.444129 0.00039968
16826 3 0.436669 0.781952 0.00039968
16827 3 0.422595 0.112412 0.0253797
16831 3 0.408522 0.944129 0.00039968
16832 3 0.436669 0.281953 0.00039968
16833 3 0.422595 0.612411 0.0253797
17377 1 0.40865 0.442846 0.0507128
17378 1 0.43672 0.780742 0.0505807
17383 1 0.40865 0.942846 0.0507128
17384 1 0.43672 0.280742 0.0505807
16828 3 0.464816 0.119839 0.00039968
16829 3 0.450743 0.4505 0.0253797
16830 1 0.478893 0.788561 0.0254212
16834 3 0.464816 0.619839 0.00039968
16835 3 0.450743 0.9505 0.0253797
16836 1 0.478893 0.288561 0.0254212
17380 1 0.464836 0.119038 0.0505752
17386 1 0.464836 0.619038 0.0505752
16837 3 0.492963 0.457759 0.00039968
16843 3 0.492963 0.957759 0.00039968
17389 1 0.492971 0.457467 0.0505835
17395 1 0.492971 0.957467 0.0505835
17894 3 0.183345 0.737833 0.10032
17895 3 0.169271 0.0669101 0.1253
17900 3 0.183345 0.237834 0.10032
17901 3 0.169271 0.56691 0.1253
17346 3 0.225565 0.74559 0.0753397
17352 3 0.225565 0.245591 0.0753397
17355 3 0.253713 0.0828291 0.0753397
17361 3 0.253713 0.582829 0.0753397
17896 3 0.211492 0.074784 0.10032
17897 3 0.197418 0.403777 0.1253
17898 1 0.225757 0.741338 0.125523
17902 3 0.211492 0.574784 0.10032
17903 3 0.197418 0.903778 0.1253
17904 1 0.225757 0.241338 0.125523
17905 3 0.239639 0.411991 0.10032
17907 1 0.253911 0.078807 0.125616
17911 3 0.239639 0.911991 0.10032
17913 1 0.253911 0.578807 0.125616
17357 3 0.28186 0.420305 0.0753397
17358 1 0.310099 0.758573 0.0756387
17363 3 0.28186 0.920305 0.0753397
17364 1 0.310099 0.258573 0.0756387
17906 1 0.267918 0.750162 0.10056
17908 1 0.296101 0.0877282 0.100668
17909 1 0.281996 0.41638 0.12555
17910 1 0.310138 0.754377 0.125547
17912 1 0.267918 0.250162 0.10056
17914 1 0.296101 0.587728 0.100668
17915 1 0.281996 0.91638 0.12555
17916 1 0.310138 0.254377 0.125547
17367 1 0.338317 0.0961915 0.0756323
17369 1 0.366424 0.434233 0.0755976
17373 1 0.338317 0.596192 0.0756323
17375 1 0.366424 0.934233 0.0755976
17917 1 0.324217 0.425525 0.100568
17918 1 0.352346 0.763601 0.100545
17919 1 0.338267 0.0924324 0.12552
17920 1 0.380474 0.101935 0.100564
17921 1 0.366394 0.430847 0.125515
17923 1 0.324217 0.925525 0.100568
17924 1 0.352346 0.263601 0.100545
17925 1 0.338267 0.592432 0.12552
17926 1 0.380474 0.601935 0.100564
17927 1 0.366394 0.930847 0.125515
17370 1 0.394564 0.772752 0.0756298
17376 1 0.394564 0.272752 0.0756298
17379 1 0.422691 0.111042 0.0755806
17385 1 0.422691 0.611042 0.0755806
17922 1 0.39453 0.769598 0.125521
17928 1 0.39453 0.269598 0.125521
17929 1 0.408617 0.440587 0.10057
17930 1 0.436742 0.779271 0.100542
17931 1 0.422666 0.108609 0.12552
17935 1 0.408617 0.940587 0.10057
17936 1 0.436742 0.279271 0.100542
17937 1 0.422666 0.608609 0.12552
17381 1 0.450795 0.449305 0.0755297
17382 1 0.478913 0.787893 0.0755206
17387 1 0.450795 0.949305 0.0755297
17388 1 0.478913 0.287893 0.0755206
17932 1 0.464858 0.118039 0.100518
17933 1 0.450794 0.447748 0.125509
17934 1 0.478916 0.787028 0.125501
17938 1 0.464858 0.618039 0.100518
17939 1 0.450794 0.947748 0.125509
17940 1 0.478916 0.287028 0.125501
17941 1 0.492978 0.457009 0.100511
17947 1 0.492978 0.957009 0.100511
18436 3 0.127051 0.0593485 0.15028
18437 3 0.112977 0.388287 0.17526
18442 3 0.127051 0.559348 0.15028
18443 3 0.112977 0.888288 0.17526
18438 3 0.141124 0.724618 0.17526
18444 3 0.141124 0.224619 0.17526
18445 3 0.155198 0.395831 0.15028
18446 1 0.183306 0.731485 0.150354
18447 1 0.169464 0.0616821 0.175513
18451 3 0.155198 0.895832 0.15028
18452 1 0.183306 0.231485 0.150354
18453 1 0.169464 0.561682 0.175513
18448 1 0.211635 0.0696423 0.150551
18449 1 0.197538 0.397953 0.175459
18450 1 0.225653 0.735259 0.175437
18454 1 0.211635 0.569642 0.150551
18455 1 0.197538 0.897953 0.175459
18456 1 0.225653 0.235259 0.175437
18457 1 0.239755 0.407151 0.150501
18459 1 0.253797 0.0727712 0.175436
18463 1 0.239755 0.907151 0.150501
18465 1 0.253797 0.572771 0.175436
18458 1 0.267906 0.744847 0.150508
18460 1 0.29604 0.0826297 0.150491
18461 1 0.281937 0.410605 0.175431
18462 1 0.310076 0.748713 0.175423
18464 1 0.267906 0.244847 0.150508
18466 1 0.29604 0.58263 0.150491
18467 1 0.281937 0.910605 0.175431
18468 1 0.310076 0.248713 0.175423
18469 1 0.324177 0.42083 0.150478
18470 1 0.352309 0.759283 0.150469
18471 1 0.338215 0.0872275 0.175422
18472 1 0.380444 0.0981289 0.150476
18473 1 0.366353 0.426169 0.175427
18475 1 0.324177 0.92083 0.150478
18476 1 0.352309 0.259283 0.150469
18477 1 0.338215 0.587227 0.175422
18478 1 0.380444 0.598129 0.150476
18479 1 0.366353 0.926169 0.175427
18474 1 0.394493 0.765566 0.175439
18480 1 0.394493 0.265566 0.175439
18481 1 0.408582 0.437362 0.150485
18482 1 0.436717 0.77687 0.150488
18483 1 0.422633 0.105368 0.175452
18487 1 0.408582 0.937362 0.150485
18488 1 0.436717 0.27687 0.150488
18489 1 0.422633 0.605368 0.175452
18484 1 0.464847 0.116559 0.150487
18485 1 0.45077 0.445481 0.175461
18486 1 0.478903 0.785804 0.175467
18490 1 0.464847 0.616559 0.150487
18491 1 0.45077 0.945481 0.175461
18492 1 0.478903 0.285804 0.175467
18493 1 0.492972 0.456382 0.150487
18499 1 0.492972 0.956382 0.150487
18986 3 0.0989034 0.717144 0.20024
18987 3 0.0848298 0.0459436 0.22522
18988 3 0.127051 0.053295 0.20024
18989 3 0.112977 0.381889 0.22522
18992 3 0.0989034 0.217144 0.20024
18993 3 0.0848298 0.545943 0.22522
18994 3 0.127051 0.553294 0.20024
18995 3 0.112977 0.88189 0.22522
18990 1 0.141259 0.717938 0.22535
18996 1 0.141259 0.217938 0.22535
18997 1 0.155409 0.389783 0.200505
18998 1 0.183484 0.72647 0.200436
18999 1 0.169368 0.0545528 0.22537
19003 1 0.155409 0.889783 0.200505
19004 1 0.183484 0.22647 0.200436
19005 1 0.169368 0.554553 0.22537
19000 1 0.211584 0.0632363 0.200389
19001 1 0.197498 0.391205 0.225354
19002 1 0.225612 0.728154 0.225322
19006 1 0.211584 0.563236 0.200389
19007 1 0.197498 0.891205 0.225354
19008 1 0.225612 0.228154 0.225322
19009 1 0.239703 0.400524 0.200372
19011 1 0.253737 0.0655179 0.225309
19015 1 0.239703 0.900524 0.200372
19017 1 0.253737 0.565518 0.225309
19010 1 0.267834 0.738168 0.200366
19012 1 0.295973 0.0762055 0.200364
19013 1 0.281869 0.403357 0.225303
19014 1 0.310005 0.741702 0.225302
19016 1 0.267834 0.238168 0.200366
19018 1 0.295973 0.576206 0.200364
19019 1 0.281869 0.903357 0.225303
19020 1 0.310005 0.241702 0.225302
19021 1 0.324112 0.414683 0.200364
19022 1 0.352254 0.753662 0.200371
19023 1 0.338146 0.080614 0.225308
19024 1 0.380397 0.093169 0.200384
19025 1 0.366291 0.420142 0.225321
19027 1 0.324112 0.914683 0.200364
19028 1 0.352254 0.253662 0.200371
19029 1 0.338146 0.580614 0.225308
19030 1 0.380397 0.593169 0.200384
19031 1 0.366291 0.920142 0.225321
19026 1 0.39444 0.760316 0.225342
19032 1 0.39444 0.260316 0.225342
19033 1 0.408541 0.433201 0.200403
19034 1 0.436685 0.773695 0.200422
19035 1 0.42259 0.101114 0.225367
19039 1 0.408541 0.933201 0.200403
19040 1 0.436685 0.273695 0.200422
19041 1 0.42259 0.601114 0.225367
19036 1 0.464826 0.11454 0.200437
19037 1 0.450739 0.442445 0.225392
19038 1 0.478887 0.784163 0.22541
19042 1 0.464826 0.61454 0.200437
19043 1 0.450739 0.942445 0.225392
19044 1 0.478887 0.284163 0.22541
19045 1 0.492965 0.455597 0.200445
19051 1 0.492965 0.955597 0.200445
19530 3 0.0566827 0.703488 0.27518
19536 3 0.0566827 0.203489 0.27518
20080 3 0.0426091 0.0322937 0.30016
20086 3 0.0426091 0.532293 0.30016
19537 3 0.0707563 0.374715 0.2502
19538 3 0.0989034 0.710435 0.2502
19539 3 0.0848298 0.0389657 0.27518
19540 1 0.127181 0.0462315 0.250296
19541 1 0.113113 0.374538 0.275259
19543 3 0.0707563 0.874715 0.2502
19544 3 0.0989034 0.210436 0.2502
19545 3 0.0848298 0.538965 0.27518
19546 1 0.127181 0.546231 0.250296
19547 1 0.113113 0.874538 0.275259
20089 3 0.0707563 0.367515 0.30016
20090 1 0.0990516 0.702849 0.300228
20092 1 0.127123 0.0383514 0.300187
20095 3 0.0707563 0.867515 0.30016
20096 1 0.0990516 0.202849 0.300228
20098 1 0.127123 0.538351 0.300187
19542 1 0.141184 0.710354 0.275227
19548 1 0.141184 0.210354 0.275227
19549 1 0.15526 0.382381 0.250284
19550 1 0.183395 0.718934 0.250294
19551 1 0.169305 0.0465134 0.275229
19555 1 0.15526 0.882381 0.250284
19556 1 0.183395 0.218934 0.250294
19557 1 0.169305 0.546513 0.275229
20101 1 0.155237 0.374137 0.30018
20102 1 0.183348 0.710259 0.300173
20107 1 0.155237 0.874137 0.30018
20108 1 0.183348 0.210259 0.300173
19552 1 0.211518 0.055667 0.250276
19553 1 0.197426 0.383002 0.275223
19554 1 0.225548 0.719794 0.27521
19558 1 0.211518 0.555667 0.250276
19559 1 0.197426 0.883002 0.275223
19560 1 0.225548 0.219794 0.27521
19561 1 0.239641 0.392731 0.250258
19563 1 0.253669 0.0569991 0.275195
19567 1 0.239641 0.892732 0.250258
19569 1 0.253669 0.556999 0.275195
20104 1 0.211464 0.0467272 0.300164
20110 1 0.211464 0.546727 0.300164
20113 1 0.239579 0.383574 0.30015
20119 1 0.239579 0.883574 0.30015
19562 1 0.267767 0.730273 0.250246
19564 1 0.295898 0.0683606 0.250241
19565 1 0.281793 0.394743 0.275184
19566 1 0.309923 0.733128 0.275178
19568 1 0.267767 0.230273 0.250246
19570 1 0.295898 0.568361 0.250241
19571 1 0.281793 0.894743 0.275184
19572 1 0.309923 0.233128 0.275178
20114 1 0.267695 0.720916 0.300134
20116 1 0.295816 0.0588731 0.300121
20120 1 0.267695 0.220916 0.300134
20122 1 0.295816 0.558873 0.300121
19573 1 0.324035 0.407075 0.250242
19574 1 0.352178 0.746488 0.250251
19575 1 0.338061 0.0722616 0.275181
19576 1 0.380328 0.0866666 0.250271
19577 1 0.366209 0.412263 0.275194
19579 1 0.324035 0.907075 0.250242
19580 1 0.352178 0.246488 0.250251
19581 1 0.338061 0.572262 0.275181
19582 1 0.380328 0.586667 0.250271
19583 1 0.366209 0.912263 0.275194
20125 1 0.323946 0.397578 0.300115
20126 1 0.352085 0.737191 0.300118
20128 1 0.380236 0.0778922 0.300135
20131 1 0.323946 0.897578 0.300115
20132 1 0.352085 0.237191 0.300118
20134 1 0.380236 0.577892 0.300135
20144 1 0.436575 0.263109 0.300213
20143 1 0.408401 0.919842 0.300168
19578 1 0.394365 0.753229 0.275221
19584 1 0.394365 0.253229 0.275221
19585 1 0.408483 0.427645 0.2503
19586 1 0.436641 0.769379 0.250332
19587 1 0.422528 0.0952054 0.275257
19591 1 0.408483 0.927645 0.2503
19592 1 0.436641 0.269379 0.250332
19593 1 0.422528 0.595205 0.275257
20137 1 0.408401 0.419842 0.300168
20138 1 0.436575 0.763109 0.300213
20146 1 0.464757 0.607589 0.300257
19588 1 0.464799 0.111746 0.250362
19589 1 0.450696 0.438132 0.275297
19590 1 0.478865 0.781803 0.275328
19594 1 0.464799 0.611746 0.250362
19595 1 0.450696 0.938132 0.275297
19596 1 0.478865 0.281803 0.275328
20140 1 0.464757 0.107589 0.300257
19597 1 0.492956 0.454529 0.25038
19603 1 0.492956 0.954529 0.25038
20149 1 0.492942 0.452945 0.300286
20155 1 0.492942 0.952945 0.300286
20640 1 0.0569986 0.187473 0.375144
20639 3 0.0285356 0.85361 0.3751
20638 3 0.0426091 0.524807 0.35012
20636 3 0.014462 0.190111 0.35012
20634 1 0.0569986 0.687473 0.375144
20633 3 0.0285356 0.353609 0.3751
20632 3 0.0426091 0.0248077 0.35012
20630 3 0.014462 0.69011 0.35012
20081 3 0.0285356 0.361158 0.32514
20082 3 0.0566827 0.696119 0.32514
20087 3 0.0285356 0.861159 0.32514
20088 3 0.0566827 0.196119 0.32514
20651 1 0.113144 0.857187 0.375104
20650 1 0.127165 0.529392 0.350117
20649 1 0.085075 0.522344 0.375125
20648 1 0.0990873 0.194205 0.35013
20647 1 0.0710904 0.859335 0.350175
20645 1 0.113144 0.357187 0.375104
20644 1 0.127165 0.0293915 0.350117
20643 1 0.085075 0.0223442 0.375125
20642 1 0.0990873 0.694205 0.35013
20641 1 0.0710904 0.359335 0.350175
20091 1 0.0850109 0.0311573 0.325194
20093 1 0.113085 0.36634 0.325152
20097 1 0.0850109 0.531157 0.325194
20099 1 0.113085 0.86634 0.325152
20661 1 0.169306 0.52751 0.375071
20660 1 0.183345 0.200508 0.350092
20659 1 0.155249 0.86482 0.350104
20655 1 0.169306 0.02751 0.375071
20654 1 0.183345 0.700508 0.350092
20653 1 0.155249 0.36482 0.350104
20652 1 0.141217 0.192228 0.375085
20646 1 0.141217 0.692228 0.375085
20094 1 0.141189 0.701773 0.325143
20100 1 0.141189 0.201773 0.325143
20103 1 0.16929 0.0375277 0.325132
20109 1 0.16929 0.537528 0.325132
20673 1 0.253581 0.535247 0.375016
20671 1 0.239541 0.87293 0.350061
20667 1 0.253581 0.0352468 0.375016
20665 1 0.239541 0.37293 0.350061
20664 1 0.225489 0.198941 0.375038
20663 1 0.197396 0.863058 0.375055
20662 1 0.211442 0.536519 0.350079
20658 1 0.225489 0.698941 0.375038
20657 1 0.197396 0.363058 0.375055
20656 1 0.211442 0.0365193 0.350079
20105 1 0.197396 0.373607 0.325124
20106 1 0.225502 0.710057 0.32511
20111 1 0.197396 0.873607 0.325124
20112 1 0.225502 0.210057 0.32511
20115 1 0.25361 0.046951 0.325093
20121 1 0.25361 0.546951 0.325093
20676 1 0.309773 0.209594 0.374965
20675 1 0.281676 0.872075 0.374991
20674 1 0.295746 0.547354 0.350018
20672 1 0.267642 0.209829 0.35004
20670 1 0.309773 0.709594 0.374965
20669 1 0.281676 0.372075 0.374991
20668 1 0.295746 0.0473542 0.350018
20666 1 0.267642 0.709829 0.35004
20117 1 0.281721 0.384406 0.325075
20118 1 0.309838 0.722564 0.32506
20123 1 0.281721 0.884406 0.325075
20124 1 0.309838 0.222564 0.32506
20687 1 0.365989 0.887714 0.37492
20686 1 0.380118 0.565829 0.349986
20685 1 0.337875 0.548027 0.37494
20684 1 0.351979 0.225066 0.349986
20683 1 0.323857 0.885686 0.349999
20681 1 0.365989 0.387715 0.37492
20680 1 0.380118 0.0658291 0.349986
20679 1 0.337875 0.0480275 0.37494
20678 1 0.351979 0.725066 0.349986
20677 1 0.323857 0.385686 0.349999
20127 1 0.337964 0.0616082 0.325051
20129 1 0.366104 0.401767 0.325054
20133 1 0.337965 0.561608 0.325051
20135 1 0.366104 0.901767 0.325054
20697 1 0.42229 0.573039 0.37493
20696 1 0.436469 0.253316 0.35005
20695 1 0.408279 0.908419 0.350006
20691 1 0.42229 0.0730393 0.37493
20690 1 0.436469 0.753316 0.35005
20689 1 0.408279 0.408419 0.350006
20688 1 0.394123 0.229146 0.374914
20682 1 0.394123 0.729146 0.374914
20145 1 0.422435 0.586526 0.325113
20130 1 0.394261 0.743315 0.325074
20136 1 0.394261 0.243315 0.325074
20139 1 0.422435 0.0865257 0.325113
20700 1 0.478758 0.271571 0.375041
20699 1 0.450502 0.920351 0.374976
20698 1 0.464686 0.600779 0.350109
20694 1 0.478758 0.771571 0.375041
20693 1 0.450502 0.420352 0.374976
20692 1 0.464686 0.100779 0.350109
20148 1 0.478828 0.278116 0.325211
20147 1 0.450627 0.93152 0.325165
20142 1 0.478828 0.778116 0.325211
20141 1 0.450627 0.43152 0.325165
20707 1 0.492916 0.95036 0.350152
20701 1 0.492916 0.45036 0.350152
21192 1 0.0569913 0.179402 0.425051
21191 3 0.0285356 0.84567 0.42506
21190 1 0.0426572 0.517762 0.400009
21189 3 0.00038843 0.511647 0.42506
21188 3 0.014462 0.18255 0.40008
21186 1 0.0569913 0.679402 0.425051
21185 3 0.0285356 0.345669 0.42506
21184 1 0.0426572 0.0177624 0.400009
21183 3 0.00038843 0.0116471 0.42506
21182 3 0.014462 0.68255 0.40008
21203 1 0.113141 0.847636 0.42505
21202 1 0.12718 0.519852 0.400071
21201 1 0.0850382 0.51338 0.425049
21200 1 0.0990904 0.185257 0.400087
21199 1 0.0709951 0.85095 0.400087
21197 1 0.113141 0.347636 0.42505
21196 1 0.12718 0.0198518 0.400071
21195 1 0.0850382 0.01338 0.425049
21194 1 0.0990904 0.685257 0.400087
21193 1 0.0709951 0.35095 0.400087
21213 1 0.169331 0.51666 0.425024
21212 1 0.183361 0.189753 0.400038
21211 1 0.155271 0.854692 0.400055
21207 1 0.169331 0.0166605 0.425024
21206 1 0.183361 0.689753 0.400038
21205 1 0.155271 0.354692 0.400055
21204 1 0.141237 0.182075 0.425038
21198 1 0.141237 0.682075 0.425038
21225 1 0.253601 0.521819 0.424966
21223 1 0.23954 0.860756 0.4
21219 1 0.253601 0.0218186 0.424966
21217 1 0.23954 0.360756 0.4
21216 1 0.225512 0.186475 0.424989
21215 1 0.197423 0.851446 0.425008
21214 1 0.211451 0.525085 0.400021
21210 1 0.225512 0.686475 0.424989
21209 1 0.197423 0.351446 0.425008
21208 1 0.211451 0.0250845 0.400021
21228 1 0.309766 0.193852 0.424911
21227 1 0.281685 0.857562 0.42494
21226 1 0.295715 0.533497 0.399948
21224 1 0.267628 0.196853 0.399976
21222 1 0.309766 0.693852 0.424911
21221 1 0.281685 0.357562 0.42494
21220 1 0.295715 0.0334975 0.399948
21218 1 0.267628 0.696853 0.399976
21239 1 0.36592 0.869116 0.424841
21238 1 0.379995 0.549228 0.399857
21237 1 0.337843 0.530915 0.424877
21236 1 0.351893 0.209313 0.399886
21235 1 0.323803 0.870887 0.399917
21233 1 0.36592 0.369116 0.424841
21232 1 0.379995 0.0492282 0.399857
21231 1 0.337843 0.0309155 0.424877
21230 1 0.351893 0.709313 0.399886
21229 1 0.323803 0.370887 0.399917
21249 1 0.4221 0.551675 0.424759
21248 1 0.436285 0.236881 0.399837
21247 1 0.408119 0.891335 0.399838
21243 1 0.4221 0.0516752 0.424759
21242 1 0.436285 0.736881 0.399837
21241 1 0.408119 0.391335 0.399838
21240 1 0.394001 0.209041 0.4248
21234 1 0.394001 0.709041 0.4248
21252 1 0.478563 0.256939 0.424756
21251 1 0.45025 0.899377 0.424714
21250 1 0.464531 0.587936 0.399881
21246 1 0.478563 0.75694 0.424756
21245 1 0.45025 0.399377 0.424714
21244 1 0.464531 0.0879361 0.399881
21259 1 0.492861 0.945313 0.399953
21253 1 0.492861 0.445312 0.399953
21744 1 0.057058 0.170203 0.475037
21743 3 0.0285356 0.837475 0.47502
21742 1 0.0428999 0.507868 0.450098
21741 3 0.00038843 0.503907 0.47502
21740 3 0.014462 0.174689 0.45004
21738 1 0.057058 0.670203 0.475037
21737 3 0.0285356 0.337475 0.47502
21736 1 0.0428999 0.00786799 0.450098
21735 3 0.00038843 0.00390752 0.47502
21734 3 0.014462 0.674688 0.45004
22286 3 0.014462 0.666667 0.5
22288 1 0.0428836 0.999049 0.499996
22292 3 0.014462 0.166667 0.5
22294 1 0.0428836 0.499049 0.499996
21755 1 0.113185 0.837455 0.475001
21754 1 0.127207 0.509643 0.450019
21753 1 0.0850991 0.503722 0.475011
21752 1 0.0991141 0.175579 0.450026
21751 1 0.0710142 0.841662 0.450032
21749 1 0.113185 0.337455 0.475001
21748 1 0.127207 0.00964256 0.450019
21747 1 0.0850991 0.00372203 0.475011
21746 1 0.0991141 0.675579 0.450026
21745 1 0.0710142 0.341662 0.450032
22297 1 0.0710496 0.332424 0.499994
22298 1 0.0991561 0.665701 0.499987
22300 1 0.127251 0.999072 0.499978
22303 1 0.0710496 0.832424 0.499994
22304 1 0.0991561 0.165701 0.499987
22306 1 0.127251 0.499072 0.499978
21765 1 0.169379 0.505077 0.474981
21764 1 0.183401 0.178088 0.449995
21763 1 0.155305 0.843817 0.450009
21759 1 0.169379 0.00507678 0.474981
21758 1 0.183401 0.678088 0.449995
21757 1 0.155305 0.343817 0.450009
21756 1 0.141281 0.171259 0.474993
21750 1 0.141281 0.671259 0.474993
22309 1 0.155355 0.332476 0.499966
22310 1 0.18346 0.665827 0.499953
22315 1 0.155355 0.832476 0.499966
22316 1 0.18346 0.165827 0.499953
21777 1 0.253674 0.506856 0.474932
21775 1 0.239586 0.847106 0.449959
21771 1 0.253674 0.00685618 0.474932
21769 1 0.239586 0.347106 0.449959
21768 1 0.225577 0.172846 0.47495
21767 1 0.197479 0.838924 0.474966
21766 1 0.211494 0.512502 0.449978
21762 1 0.225577 0.672846 0.47495
21761 1 0.197479 0.338924 0.474966
21760 1 0.211494 0.0125019 0.449978
22312 1 0.211566 0.999136 0.499938
22318 1 0.211566 0.499136 0.499938
22321 1 0.239672 0.332414 0.499923
22327 1 0.239672 0.832414 0.499923
21780 1 0.309855 0.175301 0.474891
21779 1 0.281767 0.840986 0.474912
21778 1 0.295759 0.517136 0.449912
21776 1 0.267675 0.181954 0.449937
21774 1 0.309855 0.675301 0.474891
21773 1 0.281767 0.340986 0.474912
21772 1 0.295759 0.017136 0.449912
21770 1 0.267675 0.681954 0.449937
22322 1 0.267776 0.665624 0.499907
22324 1 0.295878 0.998758 0.499892
22328 1 0.267776 0.165624 0.499907
22330 1 0.295878 0.498758 0.499892
21791 1 0.366001 0.845028 0.474842
21790 1 0.379965 0.526741 0.449811
21789 1 0.337934 0.50992 0.474868
21788 1 0.351905 0.189195 0.449851
21787 1 0.323836 0.852802 0.449884
21785 1 0.366001 0.345028 0.474842
21784 1 0.379965 0.0267405 0.449811
21783 1 0.337934 0.0099198 0.474868
21782 1 0.351905 0.689195 0.449851
21781 1 0.323836 0.352802 0.449884
22333 1 0.323976 0.331811 0.499878
22334 1 0.352066 0.664745 0.499866
22336 1 0.380146 0.997455 0.499859
22339 1 0.323976 0.831811 0.499878
22340 1 0.352066 0.164745 0.499866
22342 1 0.380146 0.497455 0.499859
21801 1 0.422051 0.518253 0.474766
21800 1 0.436061 0.208822 0.449687
21799 1 0.408015 0.866166 0.44976
21795 1 0.422051 0.0182533 0.474766
21794 1 0.436061 0.708822 0.449687
21793 1 0.408015 0.366166 0.44976
21792 1 0.394046 0.180947 0.47481
21786 1 0.394046 0.680947 0.47481
22345 1 0.408206 0.32965 0.499857
22346 1 0.436242 0.66045 0.499875
22351 1 0.408206 0.82965 0.499857
22352 1 0.436242 0.16045 0.499875
21804 1 0.478069 0.208691 0.474542
21803 1 0.450016 0.858205 0.474701
21802 1 0.464176 0.55926 0.449566
21798 1 0.478069 0.708691 0.474542
21797 1 0.450016 0.358206 0.474701
21796 1 0.464176 0.0592597 0.449566
21811 1 0.492664 0.929727 0.449646
21805 1 0.492664 0.429726 0.449646
22354 1 0.464324 0.48749 0.499946
22348 1 0.464324 0.98749 0.499946
22287 3 0.00038843 0.996094 0.52498
22289 3 0.0285356 0.329192 0.52498
22290 1 0.0570694 0.661315 0.524953
22293 3 0.00038843 0.496093 0.52498
22295 3 0.0285356 0.829192 0.52498
22296 1 0.0570694 0.161315 0.524953
22838 3 0.014462 0.658646 0.54996
22840 1 0.0429131 0.990697 0.549891
22844 3 0.014462 0.158646 0.54996
22846 1 0.0429131 0.490697 0.549891
22299 1 0.0851206 0.994235 0.52497
22301 1 0.113216 0.327292 0.524963
22305 1 0.0851206 0.494235 0.52497
22307 1 0.113216 0.827292 0.524963
22849 1 0.0710451 0.323364 0.549954
22850 1 0.0991635 0.65602 0.549946
22852 1 0.127276 0.988676 0.549934
22855 1 0.0710451 0.823364 0.549954
22856 1 0.0991635 0.15602 0.549946
22858 1 0.127276 0.488676 0.549934
22302 1 0.141322 0.660332 0.524951
22308 1 0.141322 0.160332 0.524951
22311 1 0.169434 0.99326 0.524937
22317 1 0.169434 0.49326 0.524937
22861 1 0.155396 0.321234 0.54992
22862 1 0.183516 0.65361 0.549906
22867 1 0.155396 0.821234 0.54992
22868 1 0.183516 0.15361 0.549906
22313 1 0.197547 0.326055 0.524923
22314 1 0.225661 0.65871 0.524909
22319 1 0.197547 0.826055 0.524923
22320 1 0.225661 0.15871 0.524909
22323 1 0.253776 0.991174 0.524896
22329 1 0.253776 0.491174 0.524896
22864 1 0.211638 0.98577 0.549892
22870 1 0.211638 0.48577 0.549892
22873 1 0.239761 0.317659 0.54988
22879 1 0.239761 0.817659 0.54988
22325 1 0.281891 0.323366 0.524884
22326 1 0.310005 0.655208 0.524876
22331 1 0.281891 0.823366 0.524884
22332 1 0.310005 0.155208 0.524876
22874 1 0.267885 0.649166 0.54987
22876 1 0.29601 0.980161 0.549864
22880 1 0.267885 0.149166 0.54987
22882 1 0.29601 0.480161 0.549864
22335 1 0.338116 0.986529 0.524873
22337 1 0.366224 0.316999 0.52488
22341 1 0.338116 0.486529 0.524873
22343 1 0.366224 0.816999 0.52488
22885 1 0.324134 0.31045 0.549866
22886 1 0.352257 0.639647 0.549881
22888 1 0.380376 0.967141 0.549915
22891 1 0.324134 0.81045 0.549866
22892 1 0.352257 0.139647 0.549881
22894 1 0.380376 0.467141 0.549915
22338 1 0.394329 0.645964 0.524905
22344 1 0.394329 0.145964 0.524905
22347 1 0.422432 0.971995 0.524967
22353 1 0.422432 0.471994 0.524967
22897 1 0.408493 0.291785 0.549987
22898 1 0.436607 0.61155 0.550127
22903 1 0.408493 0.791785 0.549987
22904 1 0.436607 0.11155 0.550127
22915 1 0.492879 0.725286 0.550781
22909 1 0.492879 0.225285 0.550781
22349 1 0.450556 0.29177 0.525101
22350 1 0.478699 0.59604 0.525459
22355 1 0.450556 0.79177 0.525101
22356 1 0.478699 0.0960389 0.525459
22900 1 0.464717 0.923073 0.550417
22906 1 0.464717 0.423073 0.550417
22357 1 0.492597 0.291778 0.500227
22363 1 0.492597 0.791778 0.500227
22839 3 0.00038843 0.988354 0.57494
22841 3 0.0285356 0.320997 0.57494
22842 1 0.0570175 0.652953 0.574936
22845 3 0.00038843 0.488353 0.57494
22847 3 0.0285356 0.820997 0.57494
22848 1 0.0570175 0.152953 0.574936
23390 3 0.014462 0.650784 0.59992
23392 1 0.0426805 0.983611 0.599977
23393 3 0.0285356 0.313057 0.6249
23394 1 0.0570295 0.644122 0.624847
23396 3 0.014462 0.150784 0.59992
23398 1 0.0426805 0.483611 0.599977
23399 3 0.0285356 0.813058 0.6249
23400 1 0.0570295 0.144122 0.624847
22851 1 0.0850916 0.985166 0.574928
22853 1 0.113222 0.317491 0.57491
22857 1 0.0850916 0.485166 0.574928
22859 1 0.113222 0.817491 0.57491
23401 1 0.0710432 0.314818 0.599897
23402 1 0.0991709 0.646752 0.599881
23403 1 0.0851391 0.976262 0.624854
23404 1 0.127293 0.978683 0.599876
23405 1 0.113245 0.308075 0.624854
23407 1 0.0710432 0.814818 0.599897
23408 1 0.0991709 0.146752 0.599881
23409 1 0.0851391 0.476262 0.624854
23410 1 0.127293 0.478683 0.599876
23411 1 0.113245 0.808075 0.624854
22854 1 0.141347 0.64973 0.574899
22860 1 0.141347 0.14973 0.574899
22863 1 0.169473 0.981769 0.574886
22869 1 0.169473 0.481769 0.574886
23406 1 0.141357 0.639683 0.624847
23412 1 0.141357 0.139683 0.624847
23413 1 0.15542 0.310481 0.599866
23414 1 0.183549 0.642006 0.599853
23415 1 0.169486 0.971042 0.624833
23419 1 0.15542 0.810481 0.599866
23420 1 0.183549 0.142006 0.599853
23421 1 0.169486 0.471042 0.624833
22865 1 0.1976 0.313559 0.574873
22866 1 0.225728 0.645026 0.57486
22871 1 0.1976 0.813559 0.574873
22872 1 0.225728 0.145026 0.57486
22875 1 0.253859 0.976066 0.574851
22881 1 0.253859 0.476066 0.574851
23416 1 0.211681 0.973187 0.599839
23417 1 0.197619 0.302043 0.624818
23418 1 0.225757 0.632603 0.624805
23422 1 0.211681 0.473187 0.599839
23423 1 0.197619 0.802043 0.624818
23424 1 0.225757 0.132603 0.624805
23425 1 0.239815 0.303926 0.599829
23427 1 0.253895 0.962604 0.6248
23431 1 0.239815 0.803926 0.599829
23433 1 0.253895 0.462604 0.6248
22877 1 0.281991 0.306522 0.574847
22878 1 0.310121 0.636214 0.574851
22883 1 0.281991 0.806522 0.574847
22884 1 0.310121 0.136214 0.574851
23426 1 0.267951 0.634076 0.599825
23428 1 0.296085 0.963463 0.59983
23429 1 0.282032 0.291883 0.624804
23430 1 0.310165 0.62026 0.624821
23432 1 0.267951 0.134076 0.599825
23434 1 0.296085 0.463463 0.59983
23435 1 0.282032 0.791883 0.624804
23436 1 0.310165 0.12026 0.624821
22887 1 0.338251 0.964809 0.574868
22889 1 0.366376 0.291809 0.574905
22893 1 0.338251 0.464809 0.574868
22895 1 0.366376 0.791809 0.574905
23437 1 0.324217 0.291845 0.599847
23438 1 0.352344 0.618847 0.599884
23439 1 0.338293 0.947478 0.624855
23440 1 0.380465 0.943974 0.599949
23441 1 0.366414 0.273216 0.624913
23443 1 0.324217 0.791845 0.599847
23444 1 0.352344 0.118847 0.599884
23445 1 0.338293 0.447478 0.624855
23446 1 0.380465 0.443974 0.599949
23447 1 0.366414 0.773216 0.624913
22890 1 0.394495 0.616454 0.574976
22896 1 0.394495 0.116453 0.574976
22899 1 0.422608 0.937602 0.575099
22905 1 0.422608 0.437602 0.575099
23442 1 0.394528 0.5971 0.625002
23448 1 0.394528 0.0971001 0.625002
23449 1 0.408577 0.26659 0.600053
23450 1 0.436683 0.586105 0.600209
23451 1 0.422637 0.918852 0.625125
23455 1 0.408577 0.76659 0.600053
23456 1 0.436683 0.0861053 0.600209
23457 1 0.422637 0.418851 0.625125
23467 1 0.492956 0.717322 0.600526
23461 1 0.492956 0.217323 0.600526
22901 1 0.450714 0.253884 0.575307
22902 1 0.478841 0.565247 0.575566
22907 1 0.450714 0.753884 0.575307
22908 1 0.478841 0.0652485 0.575566
23452 1 0.464801 0.902576 0.600397
23453 1 0.450752 0.238536 0.62527
23454 1 0.478887 0.556787 0.625394
23458 1 0.464801 0.402576 0.600397
23459 1 0.450752 0.738537 0.62527
23460 1 0.478887 0.056786 0.625394
23942 3 0.014462 0.643224 0.64988
23944 3 0.0426091 0.975193 0.64988
23945 3 0.0285356 0.305508 0.67486
23946 3 0.0566827 0.637215 0.67486
23948 3 0.014462 0.143224 0.64988
23950 3 0.0426091 0.475193 0.64988
23951 3 0.0285356 0.805509 0.67486
23952 3 0.0566827 0.137216 0.67486
23953 1 0.071121 0.306479 0.649815
23954 1 0.0991579 0.637976 0.649841
23955 1 0.0850417 0.968609 0.674794
23956 1 0.127278 0.969415 0.64983
23957 1 0.11316 0.299734 0.674811
23959 1 0.071121 0.806479 0.649815
23960 1 0.0991579 0.137976 0.649841
23961 1 0.0850417 0.468609 0.674794
23962 1 0.127278 0.469415 0.64983
23963 1 0.11316 0.799734 0.674811
23958 1 0.14131 0.630735 0.674793
23964 1 0.14131 0.130735 0.674793
23965 1 0.155406 0.300625 0.649815
23966 1 0.183545 0.631509 0.649796
23967 1 0.169455 0.961507 0.674774
23971 1 0.155406 0.800625 0.649815
23972 1 0.183545 0.131509 0.649796
23973 1 0.169455 0.461507 0.674774
23968 1 0.211686 0.961972 0.649781
23969 1 0.197604 0.291923 0.674754
23970 1 0.225749 0.621865 0.674743
23974 1 0.211686 0.461972 0.649781
23975 1 0.197604 0.791923 0.674754
23976 1 0.225749 0.121865 0.674743
23977 1 0.239826 0.291915 0.649773
23979 1 0.253891 0.951221 0.674743
23983 1 0.239826 0.791915 0.649773
23985 1 0.253891 0.451221 0.674743
23978 1 0.267965 0.621205 0.649775
23980 1 0.296101 0.949691 0.64979
23981 1 0.282028 0.279877 0.674756
23982 1 0.31016 0.607704 0.674783
23984 1 0.267965 0.121205 0.649775
23986 1 0.296101 0.449691 0.64979
23987 1 0.282028 0.779877 0.674756
23988 1 0.31016 0.107704 0.674783
23989 1 0.32423 0.277205 0.649821
23990 1 0.352352 0.603534 0.649872
23991 1 0.338285 0.934569 0.674828
23992 1 0.380468 0.928462 0.649948
23993 1 0.366403 0.260338 0.674892
23995 1 0.32423 0.777205 0.649821
23996 1 0.352352 0.103534 0.649872
23997 1 0.338285 0.434569 0.674828
23998 1 0.380468 0.428462 0.649948
23999 1 0.366403 0.760338 0.674892
23994 1 0.394519 0.584924 0.674976
24000 1 0.394519 0.0849244 0.674976
24001 1 0.408581 0.251831 0.650048
24002 1 0.436696 0.573692 0.650166
24003 1 0.422636 0.908358 0.675074
24007 1 0.408581 0.751831 0.650048
24008 1 0.436696 0.0736919 0.650166
24009 1 0.422636 0.408358 0.675074
24019 1 0.492967 0.714433 0.650344
24013 1 0.492967 0.214432 0.650344
24004 1 0.464823 0.894386 0.650276
24005 1 0.45076 0.23083 0.67517