ITEM: TIMESTEP
39
ITEM: NUMBER OF ATOMS
2354
ITEM: BOX BOUNDS ss pp ss
-4.1117772832000000e+01 4.1700535187000000e+01
-4.1208122699999999e-01 4.5329187729999996e+00
-4.0155760290000003e+01 4.0660435401000001e+01
ITEM: ATOMS id type xs ys zs
17355 3 0.253713 0.0845493 0.0503597
17361 3 0.253713 0.584549 0.0503597
17356 3 0.295933 0.0922903 0.0253797
17357 3 0.28186 0.421912 0.0503597
17358 3 0.310007 0.759487 0.0503597
17362 3 0.295933 0.59229 0.0253797
17363 3 0.28186 0.921913 0.0503597
17364 3 0.310007 0.259488 0.0503597
16817 3 0.366301 0.437444 0.00039968
16823 3 0.366301 0.937444 0.00039968
17365 3 0.32408 0.429804 0.0253797
17366 3 0.352228 0.76749 0.0253797
17367 1 0.338237 0.0967411 0.0503918
17368 3 0.380375 0.10533 0.0253797
17369 1 0.366428 0.43617 0.050692
17371 3 0.32408 0.929804 0.0253797
17372 3 0.352228 0.26749 0.0253797
17373 1 0.338237 0.596741 0.0503918
17374 3 0.380375 0.605329 0.0253797
17375 1 0.366428 0.93617 0.050692
16818 3 0.394448 0.775149 0.00039968
16824 3 0.394448 0.275149 0.00039968
16827 3 0.422595 0.112957 0.00039968
16833 3 0.422595 0.612957 0.00039968
17370 1 0.394575 0.773813 0.0507165
17376 1 0.394575 0.273813 0.0507165
17377 3 0.408522 0.443301 0.0253797
17378 1 0.436677 0.781412 0.025425
17379 1 0.422643 0.111703 0.0505964
17383 3 0.408522 0.943302 0.0253797
17384 1 0.436677 0.281412 0.025425
17385 1 0.422643 0.611703 0.0505964
16829 3 0.450743 0.450843 0.00039968
16830 3 0.47889 0.788779 0.00039968
16835 3 0.450743 0.950843 0.00039968
16836 3 0.47889 0.288779 0.00039968
17380 1 0.464821 0.119567 0.0254291
17381 1 0.450766 0.450086 0.0505959
17382 1 0.478896 0.788533 0.0505962
17386 1 0.464821 0.619567 0.0254291
17387 1 0.450766 0.950086 0.0505959
17388 1 0.478896 0.288533 0.0505962
17389 1 0.492963 0.457759 0.0254292
17395 1 0.492963 0.957759 0.0254292
18445 3 0.155198 0.398242 0.1253
18446 3 0.183345 0.734981 0.1253
18451 3 0.155198 0.898242 0.1253
18452 3 0.183345 0.234981 0.1253
17896 3 0.211492 0.0767853 0.0753397
17897 3 0.197418 0.405975 0.10032
17898 3 0.225565 0.743062 0.10032
17902 3 0.211492 0.576785 0.0753397
17903 3 0.197418 0.905975 0.10032
17904 3 0.225565 0.243062 0.10032
17905 3 0.239639 0.413916 0.0753397
17907 1 0.2539 0.0809763 0.100556
17911 3 0.239639 0.913917 0.0753397
17913 1 0.2539 0.580976 0.100556
18448 1 0.211447 0.0709748 0.125386
18454 1 0.211447 0.570975 0.125386
18457 1 0.239773 0.409497 0.12559
18463 1 0.239773 0.909497 0.12559
17906 3 0.267786 0.751288 0.0753397
17908 1 0.296028 0.0895576 0.0756386
17909 1 0.282046 0.418632 0.100671
17910 1 0.310147 0.756497 0.100572
17912 3 0.267786 0.251289 0.0753397
17914 1 0.296028 0.589558 0.0756386
17915 1 0.282046 0.918632 0.100671
17916 1 0.310147 0.256497 0.100572
18458 1 0.267894 0.747332 0.12555
18460 1 0.296054 0.0854178 0.125553
18464 1 0.267894 0.247332 0.12555
18466 1 0.296054 0.585418 0.125553
17917 1 0.324244 0.427181 0.0756339
17918 1 0.35235 0.765242 0.0756008
17919 1 0.338272 0.094634 0.10055
17920 1 0.380488 0.103774 0.0756349
17921 1 0.366398 0.433011 0.10057
17923 1 0.324244 0.927181 0.0756339
17924 1 0.35235 0.265242 0.0756008
17925 1 0.338272 0.594634 0.10055
17926 1 0.380488 0.603774 0.0756349
17927 1 0.366398 0.933011 0.10057
18469 1 0.324187 0.423523 0.125525
18470 1 0.352316 0.761991 0.12552
18472 1 0.380452 0.100792 0.125528
18475 1 0.324187 0.923523 0.125525
18476 1 0.352316 0.261991 0.12552
18478 1 0.380452 0.600792 0.125528
17922 1 0.394539 0.771698 0.100578
17928 1 0.394539 0.271698 0.100578
17929 1 0.408614 0.442074 0.075591
17930 1 0.436719 0.780387 0.0755457
17931 1 0.422665 0.110425 0.100553
17935 1 0.408614 0.942074 0.075591
17936 1 0.436719 0.280387 0.0755457
17937 1 0.422665 0.610425 0.100553
18481 1 0.408589 0.439847 0.125529
18482 1 0.436717 0.779034 0.12552
18487 1 0.408589 0.939847 0.125529
18488 1 0.436717 0.279034 0.12552
17932 1 0.464838 0.119033 0.0755376
17933 1 0.450782 0.449242 0.100533
17934 1 0.478902 0.788245 0.100527
17938 1 0.464838 0.619033 0.0755376
17939 1 0.450782 0.949242 0.100533
17940 1 0.478902 0.288245 0.100527
18484 1 0.46484 0.118361 0.125514
18490 1 0.46484 0.618361 0.125514
17941 1 0.492963 0.457768 0.0755359
17947 1 0.492963 0.957768 0.0755359
18493 1 0.492962 0.457797 0.125512
18499 1 0.492962 0.957797 0.125512
18986 3 0.0989034 0.719843 0.17526
18988 3 0.127051 0.0560407 0.17526
18992 3 0.0989034 0.219844 0.17526
18994 3 0.127051 0.55604 0.17526
18438 3 0.141124 0.727201 0.15028
18444 3 0.141124 0.227201 0.15028
18447 3 0.169271 0.0638169 0.15028
18453 3 0.169271 0.563816 0.15028
18997 1 0.155153 0.391484 0.175333
18998 1 0.183467 0.729378 0.175551
19003 1 0.155153 0.891484 0.175333
19004 1 0.183467 0.229378 0.175551
18449 1 0.197585 0.401302 0.150558
18450 1 0.225665 0.737997 0.150505
18455 1 0.197585 0.901302 0.150558
18456 1 0.225665 0.237997 0.150505
18459 1 0.253789 0.0757308 0.150485
18465 1 0.253789 0.575731 0.150485
19000 1 0.211587 0.0666658 0.175482
19006 1 0.211587 0.566666 0.175482
19009 1 0.239712 0.403932 0.175434
19015 1 0.239712 0.903932 0.175434
18461 1 0.281942 0.413708 0.150486
18462 1 0.310088 0.751999 0.150479
18467 1 0.281942 0.913708 0.150486
18468 1 0.310088 0.251999 0.150479
19010 1 0.267845 0.741736 0.175421
19012 1 0.295987 0.0799427 0.175418
19016 1 0.267845 0.241736 0.175421
19018 1 0.295987 0.579943 0.175418
18471 1 0.338227 0.090513 0.150474
18473 1 0.366365 0.429415 0.150482
18477 1 0.338227 0.590513 0.150474
18479 1 0.366365 0.929415 0.150482
19021 1 0.324132 0.41854 0.175422
19022 1 0.352274 0.75754 0.17543
19024 1 0.380416 0.0969883 0.175443
19027 1 0.324132 0.91854 0.175422
19028 1 0.352274 0.25754 0.17543
19030 1 0.380416 0.596988 0.175443
18474 1 0.394505 0.768693 0.150492
18480 1 0.394505 0.268693 0.150492
18483 1 0.422641 0.108247 0.150497
18489 1 0.422641 0.608247 0.150497
19033 1 0.408558 0.436838 0.175458
19034 1 0.436696 0.776999 0.175469
19039 1 0.408558 0.936838 0.175458
19040 1 0.436696 0.276999 0.175469
18485 1 0.450772 0.447987 0.150498
18486 1 0.478899 0.787861 0.150498
18491 1 0.450772 0.947987 0.150498
18492 1 0.478899 0.287861 0.150498
19036 1 0.46483 0.11737 0.175475
19042 1 0.46483 0.61737 0.175475
19045 1 0.492963 0.457853 0.175477
19051 1 0.492963 0.957853 0.175477
18987 3 0.0848298 0.0487703 0.20024
18989 3 0.112977 0.384785 0.20024
18993 3 0.0848298 0.54877 0.20024
18995 3 0.112977 0.884785 0.20024
19537 3 0.0707563 0.377652 0.22522
19538 3 0.0989034 0.713464 0.22522
19540 1 0.127265 0.0497297 0.225481
19543 3 0.0707563 0.877653 0.22522
19544 3 0.0989034 0.213464 0.22522
19546 1 0.127265 0.54973 0.225481
18990 1 0.141313 0.721632 0.200492
18996 1 0.141313 0.221632 0.200492
18999 1 0.169382 0.0576601 0.200444
19005 1 0.169382 0.55766 0.200444
19549 1 0.155339 0.386165 0.225414
19550 1 0.183437 0.722666 0.225367
19555 1 0.155339 0.886165 0.225414
19556 1 0.183437 0.222666 0.225367
19001 1 0.197496 0.394735 0.200419
19002 1 0.225633 0.73198 0.200395
19007 1 0.197496 0.894735 0.200419
19008 1 0.225633 0.23198 0.200395
19011 1 0.253758 0.0695144 0.200366
19017 1 0.253758 0.569514 0.200366
19552 1 0.211552 0.059694 0.225341
19558 1 0.211552 0.559694 0.225341
19561 1 0.239675 0.397053 0.225318
19567 1 0.239675 0.897053 0.225318
19013 1 0.281893 0.407535 0.200358
19014 1 0.310034 0.746073 0.200361
19019 1 0.281893 0.907535 0.200358
19020 1 0.310034 0.246073 0.200361
19562 1 0.267803 0.734847 0.225303
19564 1 0.295936 0.0732011 0.225299
19568 1 0.267803 0.234847 0.225303
19570 1 0.295936 0.573201 0.225299
19023 1 0.338177 0.0851131 0.20037
19025 1 0.366322 0.424677 0.200386
19029 1 0.338177 0.585113 0.20037
19031 1 0.366322 0.924677 0.200386
19573 1 0.324076 0.412151 0.225305
19574 1 0.352221 0.751729 0.225321
19576 1 0.38037 0.0919575 0.225343
19579 1 0.324076 0.912151 0.225305
19580 1 0.352221 0.251729 0.225321
19582 1 0.38037 0.591957 0.225343
19026 1 0.394468 0.764761 0.200406
19032 1 0.394468 0.264761 0.200406
19035 1 0.422612 0.105305 0.200427
19041 1 0.422612 0.605305 0.200427
19585 1 0.40852 0.432809 0.225371
19586 1 0.43667 0.774192 0.225396
19591 1 0.40852 0.932809 0.225371
19592 1 0.43667 0.274192 0.225396
19037 1 0.450755 0.446195 0.200442
19038 1 0.478894 0.787296 0.200451
19043 1 0.450755 0.946195 0.200442
19044 1 0.478894 0.287296 0.200451
19588 1 0.464818 0.115949 0.225415
19594 1 0.464818 0.615949 0.225415
19597 1 0.492965 0.457913 0.225421
19603 1 0.492965 0.957913 0.225421
19530 3 0.0566827 0.706518 0.2502
19536 3 0.0566827 0.206519 0.2502
20080 3 0.0426091 0.0353961 0.27518
20081 3 0.0285356 0.364312 0.30016
20082 3 0.0566827 0.699417 0.30016
20086 3 0.0426091 0.535396 0.27518
20087 3 0.0285356 0.864312 0.30016
20088 3 0.0566827 0.199418 0.30016
19539 3 0.0848298 0.0421076 0.2502
19541 1 0.113128 0.37792 0.25032
19545 3 0.0848298 0.542107 0.2502
19547 1 0.113128 0.87792 0.25032
20089 3 0.0707563 0.370747 0.27518
20090 1 0.0990804 0.706233 0.275254
20091 1 0.0851594 0.0343928 0.300218
20092 1 0.127164 0.0420498 0.275248
20093 1 0.113154 0.369833 0.300195
20095 3 0.0707563 0.870748 0.27518
20096 1 0.0990804 0.206233 0.275254
20097 1 0.0851594 0.534393 0.300218
20098 1 0.127164 0.54205 0.275248
20099 1 0.113154 0.869833 0.300195
19542 1 0.141241 0.714251 0.250342
19548 1 0.141241 0.214251 0.250342
19551 1 0.169368 0.0506114 0.250329
19557 1 0.169368 0.550611 0.250329
20094 1 0.141238 0.705768 0.300205
20100 1 0.141238 0.205768 0.300205
20101 1 0.155289 0.378291 0.275266
20102 1 0.183402 0.714739 0.27525
20103 1 0.169334 0.0420242 0.300204
20107 1 0.155289 0.878291 0.275266
20108 1 0.183402 0.214739 0.27525
20109 1 0.169334 0.542024 0.300204
19553 1 0.197477 0.387272 0.250294
19554 1 0.225593 0.724346 0.250271
19559 1 0.197477 0.887272 0.250294
19560 1 0.225593 0.224346 0.250271
19563 1 0.253713 0.0618974 0.250253
19569 1 0.253713 0.561897 0.250253
20104 1 0.211514 0.0515041 0.275229
20105 1 0.197439 0.378541 0.300189
20106 1 0.225545 0.715419 0.300167
20110 1 0.211514 0.551504 0.275229
20111 1 0.197439 0.878541 0.300189
20112 1 0.225545 0.215419 0.300167
20113 1 0.239627 0.388732 0.275207
20115 1 0.253655 0.0527805 0.300145
20119 1 0.239627 0.888732 0.275207
20121 1 0.253655 0.552781 0.300145
19565 1 0.281839 0.399983 0.250241
19566 1 0.309973 0.738713 0.25024
19571 1 0.281839 0.899983 0.250241
19572 1 0.309973 0.238713 0.25024
20114 1 0.267745 0.726488 0.275189
20116 1 0.29587 0.0648816 0.27518
20117 1 0.28177 0.390752 0.300127
20118 1 0.309894 0.729481 0.300118
20120 1 0.267745 0.226488 0.275189
20122 1 0.29587 0.564882 0.27518
20123 1 0.28177 0.890752 0.300127
20124 1 0.309894 0.229481 0.300118
19575 1 0.338115 0.0781625 0.25025
19577 1 0.366263 0.418392 0.250272
19581 1 0.338115 0.578163 0.25025
19583 1 0.366263 0.918392 0.250272
20135 1 0.366178 0.909878 0.300138
20134 1 0.380302 0.585107 0.275223
20133 1 0.338029 0.569133 0.30012
20125 1 0.324004 0.404045 0.275181
20126 1 0.352149 0.744089 0.275195
20127 1 0.338029 0.0691333 0.30012
20128 1 0.380302 0.085107 0.275223
20129 1 0.366178 0.409878 0.300138
20131 1 0.324004 0.904045 0.275181
20132 1 0.352149 0.244089 0.275195
20145 1 0.422513 0.595203 0.300216
20144 1 0.43663 0.270113 0.2753
20143 1 0.408464 0.927137 0.27526
19578 1 0.394417 0.759428 0.250302
20139 1 0.422513 0.0952032 0.300216
19584 1 0.394417 0.259428 0.250302
20138 1 0.43663 0.770114 0.2753
20137 1 0.408464 0.427137 0.27526
19587 1 0.422574 0.101215 0.250336
20136 1 0.39434 0.251878 0.300172
19593 1 0.422574 0.601215 0.250336
20130 1 0.39434 0.751878 0.300172
20148 1 0.478877 0.285137 0.300287
20147 1 0.450693 0.939736 0.30026
20146 1 0.464799 0.613834 0.27533
20142 1 0.478877 0.785136 0.300287
20141 1 0.450693 0.439736 0.30026
20140 1 0.464799 0.113834 0.27533
19589 1 0.450731 0.443626 0.250365
19590 1 0.478888 0.786451 0.250382
19595 1 0.450731 0.943626 0.250365
19596 1 0.478888 0.286451 0.250382
20149 1 0.492967 0.457964 0.275341
20155 1 0.492967 0.957963 0.275341
21190 3 0.0426091 0.520378 0.3751
21188 3 0.014462 0.185902 0.3751
21184 3 0.0426091 0.0203782 0.3751
21182 3 0.014462 0.685902 0.3751
20640 1 0.0567668 0.192044 0.350029
20639 3 0.0285356 0.856967 0.35012
20638 3 0.0426091 0.528147 0.32514
20634 1 0.0567668 0.692044 0.350029
20633 3 0.0285356 0.356967 0.35012
20632 3 0.0426091 0.0281477 0.32514
21202 1 0.127146 0.52444 0.375097
21200 1 0.099026 0.189473 0.375086
21199 1 0.070912 0.854784 0.375068
21196 1 0.127146 0.0244404 0.375097
21194 1 0.099026 0.689473 0.375086
21193 1 0.070912 0.354784 0.375068
20651 1 0.113126 0.861348 0.35014
20650 1 0.127199 0.533425 0.325169
20649 1 0.0850467 0.526228 0.350128
20648 1 0.0991354 0.197845 0.325174
20647 1 0.0710715 0.862381 0.325175
20645 1 0.113126 0.361348 0.35014
20644 1 0.127199 0.0334245 0.325169
20643 1 0.0850467 0.0262278 0.350128
20642 1 0.0991354 0.697845 0.325174
20641 1 0.0710715 0.362381 0.325175
21212 1 0.183351 0.195316 0.375077
21211 1 0.155251 0.859733 0.375092
21206 1 0.183351 0.695316 0.375077
21205 1 0.155251 0.359733 0.375092
20661 1 0.16931 0.532548 0.350122
20660 1 0.183372 0.205505 0.325153
20659 1 0.155276 0.869304 0.325164
20655 1 0.16931 0.0325482 0.350122
20654 1 0.183372 0.705505 0.325153
20653 1 0.155276 0.369304 0.325164
20652 1 0.141215 0.196785 0.350133
20646 1 0.141215 0.696785 0.350133
21223 1 0.239538 0.86756 0.375032
21217 1 0.239538 0.36756 0.375032
21214 1 0.211445 0.531241 0.375057
21208 1 0.211445 0.031241 0.375057
20673 1 0.2536 0.541996 0.350054
20671 1 0.239573 0.878947 0.325109
20667 1 0.2536 0.0419959 0.350054
20665 1 0.239573 0.378947 0.325109
20664 1 0.225503 0.205076 0.35008
20663 1 0.197406 0.868625 0.350103
20662 1 0.211471 0.54202 0.325133
20658 1 0.225503 0.705076 0.35008
20657 1 0.197406 0.368625 0.350103
20656 1 0.211471 0.0420199 0.325133
21226 1 0.295724 0.541946 0.374974
21224 1 0.26763 0.204401 0.375003
21220 1 0.295724 0.0419455 0.374974
21218 1 0.26763 0.704401 0.375003
20676 1 0.309808 0.217892 0.350006
20675 1 0.281701 0.87954 0.350028
20674 1 0.295791 0.554604 0.325066
20672 1 0.267679 0.216425 0.325085
20670 1 0.309808 0.717892 0.350006
20669 1 0.281701 0.37954 0.350028
20668 1 0.295791 0.054604 0.325066
20666 1 0.267679 0.716425 0.325085
21238 1 0.380067 0.561643 0.374918
21236 1 0.351935 0.220155 0.374926
21235 1 0.323824 0.880417 0.374947
21232 1 0.380067 0.061643 0.374918
21230 1 0.351935 0.720155 0.374926
21229 1 0.323824 0.380417 0.374947
20687 1 0.366062 0.898124 0.34999
20686 1 0.380202 0.575474 0.325077
20685 1 0.337926 0.557309 0.349991
20684 1 0.352049 0.233875 0.325057
20683 1 0.323913 0.893676 0.325055
20681 1 0.366062 0.398124 0.34999
20680 1 0.380202 0.0754743 0.325077
20679 1 0.337926 0.0573091 0.349991
20678 1 0.352049 0.733875 0.325057
20677 1 0.323913 0.393676 0.325055
21248 1 0.436442 0.252936 0.374978
21247 1 0.408232 0.905588 0.374933
21242 1 0.436442 0.752937 0.374978
21241 1 0.408232 0.405589 0.374933
20697 1 0.42241 0.58573 0.350053
20696 1 0.436565 0.263799 0.325167
20695 1 0.408375 0.918744 0.325116
20691 1 0.42241 0.0857297 0.350053
20690 1 0.436565 0.763799 0.325167
20689 1 0.408375 0.418744 0.325116
20688 1 0.394221 0.240779 0.35001
20682 1 0.394221 0.740779 0.35001
21250 1 0.464697 0.604192 0.375042
21244 1 0.464697 0.104193 0.375042
20700 1 0.478854 0.282854 0.350153
20699 1 0.450624 0.933239 0.350111
20698 1 0.464765 0.610439 0.325213
20694 1 0.478854 0.782854 0.350153
20693 1 0.450624 0.433239 0.350111
20692 1 0.464765 0.11044 0.325213
21259 1 0.492972 0.958115 0.37507
21253 1 0.492972 0.458116 0.37507
20707 1 0.49297 0.958034 0.32523
20701 1 0.49297 0.458034 0.32523
21742 1 0.0428985 0.511598 0.425136
21740 3 0.014462 0.178157 0.42506
21736 1 0.0428985 0.0115976 0.425136
21734 3 0.014462 0.678156 0.42506
21192 1 0.0570139 0.183127 0.400123
21191 3 0.0285356 0.849184 0.40008
21189 3 0.00038843 0.514973 0.40008
21186 1 0.0570139 0.683127 0.400123
21185 3 0.0285356 0.349183 0.40008
21183 3 0.00038843 0.0149731 0.40008
21754 1 0.127179 0.514393 0.425032
21752 1 0.0990961 0.179907 0.425037
21751 1 0.0710152 0.845714 0.42507
21748 1 0.127179 0.0143931 0.425032
21746 1 0.0990961 0.679907 0.425037
21745 1 0.0710152 0.345714 0.42507
21203 1 0.113105 0.852068 0.400058
21201 1 0.0850093 0.51739 0.400047
21197 1 0.113105 0.352068 0.400058
21195 1 0.0850093 0.0173898 0.400047
21764 1 0.183372 0.183961 0.425016
21763 1 0.155276 0.849093 0.425027
21758 1 0.183372 0.683961 0.425016
21757 1 0.155276 0.349093 0.425027
21213 1 0.169306 0.522124 0.400052
21207 1 0.169306 0.0221239 0.400052
21204 1 0.141206 0.186999 0.400059
21198 1 0.141206 0.686999 0.400059
21775 1 0.239553 0.854424 0.424977
21769 1 0.239553 0.354424 0.424977
21766 1 0.211464 0.519049 0.425
21760 1 0.211464 0.0190491 0.425
21225 1 0.253581 0.529324 0.399988
21219 1 0.253581 0.0293241 0.399988
21216 1 0.225493 0.193217 0.400015
21215 1 0.197402 0.857511 0.400036
21210 1 0.225493 0.693217 0.400015
21209 1 0.197402 0.357511 0.400036
21778 1 0.295717 0.526523 0.424919
21776 1 0.267637 0.190193 0.42495
21772 1 0.295717 0.0265233 0.424919
21770 1 0.267637 0.690193 0.42495
21228 1 0.309753 0.203422 0.399925
21227 1 0.281667 0.865996 0.399958
21222 1 0.309753 0.703422 0.399925
21221 1 0.281667 0.365996 0.399958
21790 1 0.379947 0.541834 0.424804
21788 1 0.351867 0.201877 0.424845
21787 1 0.323792 0.86363 0.424884
21784 1 0.379947 0.0418337 0.424804
21782 1 0.351867 0.701878 0.424845
21781 1 0.323792 0.36363 0.424884
21239 1 0.365941 0.881855 0.399862
21237 1 0.337841 0.541894 0.399892
21233 1 0.365941 0.381855 0.399862
21231 1 0.337841 0.0418937 0.399892
21800 1 0.436191 0.232219 0.424716
21799 1 0.408044 0.884495 0.424761
21794 1 0.436191 0.73222 0.424716
21793 1 0.408044 0.384496 0.424761
21249 1 0.422227 0.569588 0.399839
21243 1 0.422227 0.0695873 0.399839
21240 1 0.394062 0.224005 0.399841
21234 1 0.394062 0.724005 0.399841
21802 1 0.464503 0.589803 0.424757
21796 1 0.464503 0.0898043 0.424757
21252 1 0.4788 0.278078 0.399954
21251 1 0.450471 0.920671 0.399883
21246 1 0.4788 0.778077 0.399954
21245 1 0.450471 0.420671 0.399883
21811 1 0.492974 0.958196 0.424846
21805 1 0.492973 0.458197 0.424846
21744 1 0.057054 0.174119 0.450069
21743 3 0.0285356 0.841082 0.45004
21741 3 0.00038843 0.507311 0.45004
21738 1 0.057054 0.674119 0.450069
21737 3 0.0285356 0.341081 0.45004
21735 3 0.00038843 0.0073114 0.45004
22286 3 0.014462 0.670186 0.47502
22287 3 0.00038843 0.999512 0.5
22288 1 0.0428789 0.00282503 0.475022
22289 3 0.0285356 0.332815 0.5
22290 1 0.0570537 0.665116 0.499992
22292 3 0.014462 0.170186 0.47502
22293 3 0.00038843 0.499511 0.5
22294 1 0.0428789 0.502825 0.475022
22295 3 0.0285356 0.832816 0.5
22296 1 0.0570537 0.165116 0.499992
21755 1 0.113167 0.842057 0.450017
21753 1 0.0850906 0.507976 0.450038
21749 1 0.113167 0.342057 0.450017
21747 1 0.0850906 0.00797624 0.450038
22297 1 0.0710382 0.336475 0.475024
22298 1 0.0991443 0.670139 0.475005
22299 1 0.0851146 0.998443 0.499985
22300 1 0.127236 0.0039023 0.474992
22301 1 0.113211 0.331873 0.499975
22303 1 0.0710382 0.836475 0.475024
22304 1 0.0991443 0.170139 0.475005
22305 1 0.0851146 0.498443 0.499985
22306 1 0.127236 0.503902 0.474992
22307 1 0.113211 0.831873 0.499975
21765 1 0.169351 0.510678 0.449997
21759 1 0.169351 0.0106781 0.449997
21756 1 0.141256 0.176314 0.450007
21750 1 0.141256 0.676314 0.450007
22302 1 0.141311 0.665305 0.499965
22308 1 0.141311 0.165305 0.499965
22309 1 0.155334 0.337771 0.474981
22310 1 0.183432 0.671698 0.474969
22311 1 0.169415 0.998715 0.499953
22315 1 0.155334 0.837771 0.474981
22316 1 0.183432 0.171698 0.474969
22317 1 0.169415 0.498715 0.499953
21777 1 0.253627 0.514711 0.449945
21771 1 0.253627 0.0147106 0.449945
21768 1 0.225538 0.179822 0.449967
21767 1 0.197446 0.845169 0.449985
21762 1 0.225538 0.679822 0.449967
21761 1 0.197446 0.345169 0.449985
22312 1 0.21153 0.00567469 0.474955
22313 1 0.19752 0.33209 0.49994
22314 1 0.225625 0.665409 0.499927
22318 1 0.21153 0.505675 0.474955
22319 1 0.19752 0.83209 0.49994
22320 1 0.225625 0.165409 0.499927
22321 1 0.239627 0.339731 0.474938
22323 1 0.25373 0.998672 0.499911
22327 1 0.239627 0.839731 0.474938
22329 1 0.25373 0.498672 0.499911
21780 1 0.309786 0.185652 0.449889
21779 1 0.28171 0.849938 0.449919
21774 1 0.309786 0.685652 0.449889
21773 1 0.28171 0.349938 0.449919
22322 1 0.26772 0.673916 0.474918
22324 1 0.295806 0.00828334 0.474896
22325 1 0.281831 0.331864 0.499896
22326 1 0.309928 0.664951 0.499881
22328 1 0.26772 0.173915 0.474918
22330 1 0.295806 0.508283 0.474896
22331 1 0.281831 0.831864 0.499896
22332 1 0.309928 0.164952 0.499881
21791 1 0.365912 0.859663 0.449814
21789 1 0.337854 0.522086 0.449855
21785 1 0.365912 0.359663 0.449814
21783 1 0.337854 0.0220851 0.449855
22333 1 0.323885 0.342934 0.474871
22334 1 0.351951 0.678067 0.474845
22335 1 0.338017 0.997906 0.499868
22336 1 0.379994 0.0140038 0.474812
22337 1 0.366095 0.330632 0.49986
22339 1 0.323885 0.842934 0.474871
22340 1 0.351951 0.178067 0.474845
22341 1 0.338017 0.497906 0.499868
22342 1 0.379994 0.514003 0.474812
22343 1 0.366095 0.830632 0.49986
21801 1 0.422004 0.541768 0.449689
21795 1 0.422004 0.0417679 0.449689
21792 1 0.39396 0.199103 0.449763
21786 1 0.39396 0.699102 0.449763
22338 1 0.394154 0.66283 0.499859
22344 1 0.394154 0.162829 0.499859
22345 1 0.407996 0.351308 0.474768
22346 1 0.435959 0.691263 0.474702
22347 1 0.422188 0.993635 0.499876
22351 1 0.407997 0.851308 0.474768
22352 1 0.435959 0.191261 0.474702
22353 1 0.422188 0.493636 0.499877
21804 1 0.478603 0.262697 0.449645
21803 1 0.450117 0.892211 0.449568
21798 1 0.478603 0.762696 0.449645
21797 1 0.450117 0.39221 0.449568
22348 1 0.464009 0.0417148 0.474543
22349 1 0.450268 0.320687 0.499947
22363 1 0.492974 0.958293 0.474597
22354 1 0.464009 0.541715 0.474543
22355 1 0.450268 0.820686 0.499947
22357 1 0.492974 0.458293 0.474597
22838 3 0.014462 0.662144 0.52498
22839 3 0.00038843 0.991721 0.54996
22840 1 0.0428869 0.994212 0.524965
22841 3 0.0285356 0.32456 0.54996
22842 1 0.0570762 0.656393 0.549911
22844 3 0.014462 0.162145 0.52498
22845 3 0.00038843 0.491721 0.54996
22846 1 0.0428869 0.494212 0.524965
22847 3 0.0285356 0.824561 0.54996
22848 1 0.0570762 0.156393 0.549911
22849 1 0.0710567 0.327289 0.524953
22850 1 0.0991746 0.660299 0.524952
22851 1 0.0851355 0.989054 0.549925
22852 1 0.127277 0.9933 0.524947
22853 1 0.113234 0.321741 0.549928
22855 1 0.0710567 0.827289 0.524953
22856 1 0.0991746 0.160299 0.524952
22857 1 0.0851355 0.489054 0.549925
22858 1 0.127277 0.4933 0.524947
22859 1 0.113234 0.821741 0.549928
22854 1 0.141346 0.654361 0.549918
22860 1 0.141346 0.154361 0.549918
22861 1 0.155388 0.326271 0.524936
22862 1 0.1835 0.659134 0.524923
22863 1 0.169466 0.986821 0.549903
22867 1 0.155388 0.826271 0.524936
22868 1 0.1835 0.159134 0.524923
22869 1 0.169466 0.486821 0.549903
22864 1 0.211615 0.991839 0.52491
22865 1 0.197589 0.319045 0.54989
22866 1 0.225715 0.650966 0.549879
22870 1 0.211615 0.491839 0.52491
22871 1 0.197589 0.819045 0.54989
22872 1 0.225715 0.150966 0.549879
22873 1 0.23973 0.324344 0.524898
22875 1 0.25384 0.982514 0.54987
22879 1 0.23973 0.824343 0.524898
22881 1 0.25384 0.482514 0.54987
22874 1 0.267845 0.656594 0.524887
22876 1 0.295958 0.988475 0.524878
22877 1 0.281964 0.313553 0.549866
22878 1 0.310087 0.643861 0.549869
22880 1 0.267845 0.156594 0.524887
22882 1 0.295958 0.488475 0.524878
22883 1 0.281964 0.813553 0.549866
22884 1 0.310087 0.143861 0.549869
22885 1 0.324068 0.319818 0.524876
22886 1 0.352175 0.650306 0.524882
22887 1 0.338208 0.973078 0.549883
22888 1 0.380278 0.979275 0.524907
22889 1 0.366326 0.300583 0.549918
22891 1 0.324068 0.819818 0.524876
22892 1 0.352175 0.150305 0.524882
22893 1 0.338208 0.473078 0.549883
22894 1 0.380278 0.479275 0.524907
22895 1 0.366326 0.800582 0.549918
22890 1 0.39444 0.625241 0.54999
22896 1 0.39444 0.125242 0.54999
22897 1 0.408379 0.305317 0.524968
22898 1 0.4365 0.62513 0.525102
22899 1 0.422552 0.945055 0.55013
22903 1 0.408379 0.805316 0.524968
22904 1 0.4365 0.125132 0.525102
22905 1 0.422552 0.445054 0.55013
22900 1 0.464639 0.929483 0.525458
22901 1 0.450658 0.256642 0.550418
22902 1 0.478815 0.558933 0.550781
22906 1 0.464639 0.42948 0.525458
22907 1 0.450658 0.756642 0.550418
22908 1 0.478815 0.0589351 0.550781
22909 1 0.492974 0.208388 0.525962
22915 1 0.492974 0.708392 0.525962
22356 1 0.478537 0.125006 0.500226
22350 1 0.478538 0.625006 0.500226
23390 3 0.014462 0.654194 0.57494
23391 3 0.00038843 0.984087 0.59992
23392 1 0.0429138 0.985974 0.574847
23393 3 0.0285356 0.31649 0.59992
23394 1 0.0570364 0.648267 0.599843
23396 3 0.014462 0.154195 0.57494
23397 3 0.00038843 0.484086 0.59992
23398 1 0.0429137 0.485974 0.574847
23399 3 0.0285356 0.81649 0.59992
23400 1 0.0570364 0.148267 0.599843
23942 3 0.014462 0.646486 0.6249
23944 3 0.0426091 0.978626 0.6249
23948 3 0.014462 0.146487 0.6249
23950 3 0.0426091 0.478626 0.6249
23401 1 0.0710592 0.31845 0.574894
23402 1 0.0991723 0.650744 0.574909
23403 1 0.0850779 0.980212 0.599894
23404 1 0.127283 0.982994 0.574901
23405 1 0.113202 0.312164 0.599884
23407 1 0.0710592 0.81845 0.574894
23408 1 0.0991723 0.150744 0.574909
23409 1 0.0850779 0.480212 0.599894
23410 1 0.127283 0.482994 0.574901
23411 1 0.113202 0.812164 0.599884
23953 1 0.0709695 0.310386 0.624849
23954 1 0.0990851 0.641884 0.624875
23956 1 0.127257 0.973483 0.624827
23959 1 0.0709695 0.810386 0.624849
23960 1 0.0990851 0.141884 0.624875
23962 1 0.127257 0.473483 0.624827
23406 1 0.141342 0.644049 0.599858
23412 1 0.141342 0.144049 0.599858
23413 1 0.155413 0.315138 0.574881
23414 1 0.183547 0.647001 0.574865
23415 1 0.16949 0.975641 0.599835
23419 1 0.155413 0.815138 0.574881
23420 1 0.183547 0.147001 0.574865
23421 1 0.16949 0.475641 0.599835
23965 1 0.155422 0.304878 0.624799
23966 1 0.183577 0.63586 0.624787
23971 1 0.155422 0.804878 0.624799
23972 1 0.183577 0.13586 0.624787
23416 1 0.211682 0.978493 0.574854
23417 1 0.197634 0.306833 0.599823
23418 1 0.225774 0.637545 0.599819
23422 1 0.211682 0.478493 0.574854
23423 1 0.197634 0.806833 0.599823
23424 1 0.225774 0.137545 0.599819
23425 1 0.239815 0.30954 0.574848
23427 1 0.25391 0.967686 0.599821
23431 1 0.239815 0.80954 0.574848
23433 1 0.25391 0.467686 0.599821
23968 1 0.211722 0.966362 0.624786
23974 1 0.211722 0.466362 0.624786
23977 1 0.239859 0.29631 0.624792
23983 1 0.239859 0.79631 0.624792
23426 1 0.267947 0.640028 0.574846
23428 1 0.296076 0.969744 0.574852
23429 1 0.282043 0.297092 0.59983
23430 1 0.310171 0.625497 0.599851
23432 1 0.267947 0.140028 0.574846
23434 1 0.296076 0.469744 0.574852
23435 1 0.282043 0.797092 0.59983
23436 1 0.310171 0.125497 0.599851
23978 1 0.267993 0.625586 0.624803
23980 1 0.296121 0.953992 0.624825
23984 1 0.267993 0.125586 0.624803
23986 1 0.296121 0.453991 0.624825
23437 1 0.324203 0.298356 0.574871
23438 1 0.352326 0.625371 0.574909
23439 1 0.338295 0.952518 0.599889
23440 1 0.380443 0.950032 0.57498
23441 1 0.366412 0.277667 0.599954
23443 1 0.324203 0.798356 0.574871
23444 1 0.352326 0.125371 0.574909
23445 1 0.338295 0.452518 0.599889
23446 1 0.380443 0.450032 0.57498
23447 1 0.366412 0.777668 0.599954
23989 1 0.324245 0.281242 0.624861
23990 1 0.352362 0.607013 0.62492
23992 1 0.380472 0.930941 0.625009
23995 1 0.324245 0.781242 0.624861
23996 1 0.352362 0.107013 0.62492
23998 1 0.380472 0.430942 0.625009
23442 1 0.394521 0.600323 0.600059
23448 1 0.394521 0.100323 0.600059
23449 1 0.408553 0.271221 0.575103
23450 1 0.436655 0.587566 0.57531
23451 1 0.422625 0.919888 0.600215
23455 1 0.408553 0.771222 0.575103
23456 1 0.436655 0.0875639 0.57531
23457 1 0.422625 0.419888 0.600215
24001 1 0.408578 0.252744 0.625132
24002 1 0.43669 0.572479 0.625277
24007 1 0.408578 0.752743 0.625132
24008 1 0.43669 0.0724805 0.625277
23452 1 0.464778 0.898994 0.575568
23453 1 0.450739 0.236418 0.600402
23454 1 0.47889 0.551224 0.600529
23458 1 0.464778 0.398997 0.575568
23459 1 0.450739 0.736418 0.600402
23460 1 0.47889 0.0512227 0.600529
24004 1 0.464822 0.890791 0.625399
24010 1 0.464822 0.390789 0.625399
23461 1 0.492973 0.208446 0.575673
23467 1 0.492973 0.708441 0.575674
24013 1 0.492973 0.208518 0.625446
24019 1 0.492973 0.70852 0.625446
23945 3 0.0285356 0.308756 0.64988
23946 3 0.0566827 0.640623 0.64988
23951 3 0.0285356 0.808756 0.64988
23952 3 0.0566827 0.140624 0.64988
24496 3 0.0426091 0.970917 0.67486
24502 3 0.0426091 0.470917 0.67486
23955 1 0.0850054 0.971929 0.649856
23957 1 0.113177 0.303313 0.649793
23961 1 0.0850054 0.471929 0.649856
23963 1 0.113177 0.803313 0.649793
24505 1 0.0708715 0.302449 0.674913
24506 1 0.099193 0.633184 0.674757
24508 1 0.127337 0.964528 0.674697
24511 1 0.0708714 0.802449 0.674913
24512 1 0.099193 0.133184 0.674757
24514 1 0.127337 0.464528 0.674697
23958 1 0.141361 0.63456 0.649752
23964 1 0.141361 0.13456 0.649752
23967 1 0.16952 0.965436 0.649744
23973 1 0.16952 0.465436 0.649744
24517 1 0.155476 0.295413 0.674696
24518 1 0.183609 0.625794 0.674711
24523 1 0.155476 0.795413 0.674696
24524 1 0.183609 0.125794 0.674711
23969 1 0.197664 0.295826 0.649749
23970 1 0.2258 0.625696 0.64976
23975 1 0.197664 0.795826 0.649749
23976 1 0.2258 0.125696 0.64976
23979 1 0.253932 0.954961 0.649774
23985 1 0.253932 0.454961 0.649774
24520 1 0.211736 0.95568 0.674727
24526 1 0.211736 0.45568 0.674727
24529 1 0.239864 0.285024 0.674743
24535 1 0.239864 0.785024 0.674743
23981 1 0.28206 0.283478 0.649796
23982 1 0.310183 0.611037 0.64983
23987 1 0.28206 0.783478 0.649796
23988 1 0.310183 0.111037 0.64983
24530 1 0.26799 0.61371 0.674764
24532 1 0.296113 0.941598 0.674795
24536 1 0.26799 0.11371 0.674764
24538 1 0.296113 0.441598 0.674795
23991 1 0.3383 0.937416 0.649882
23993 1 0.366412 0.262398 0.649957
23997 1 0.3383 0.437416 0.649882
23999 1 0.366412 0.762398 0.649957
24541 1 0.324232 0.268523 0.674841
24542 1 0.352346 0.594355 0.674905
24544 1 0.380459 0.919007 0.674987
24547 1 0.324232 0.768523 0.674841
24548 1 0.352346 0.0943547 0.674905
24550 1 0.380459 0.419007 0.674987
24560 1 0.436696 0.0650472 0.675178
24559 1 0.408573 0.742506 0.675083
23994 1 0.394521 0.585823 0.650057
24000 1 0.394521 0.0858232 0.650057