ITEM: TIMESTEP
46
ITEM: NUMBER OF ATOMS
2342
ITEM: BOX BOUNDS ss pp ss
-4.1117772832000000e+01 4.1700535187000000e+01
-4.1208122699999999e-01 4.5329187729999996e+00
-4.0492225267000002e+01 4.0323970425000006e+01
ITEM: ATOMS id type xs ys zs
16806 3 0.310007 0.761268 0.0253797
16812 3 0.310007 0.261268 0.0253797
17354 3 0.267786 0.753507 0.0503597
17356 3 0.295933 0.0909539 0.0503597
17360 3 0.267786 0.253508 0.0503597
17362 3 0.295933 0.590953 0.0503597
16815 3 0.338154 0.0988413 0.0253797
16816 3 0.380375 0.106433 0.00039968
16817 3 0.366301 0.436574 0.0253797
16821 3 0.338154 0.598841 0.0253797
16822 3 0.380375 0.606432 0.00039968
16823 3 0.366301 0.936574 0.0253797
17365 3 0.32408 0.428603 0.0503597
17366 1 0.352309 0.765804 0.0503911
17368 1 0.380501 0.105229 0.0506908
17371 3 0.32408 0.928604 0.0503597
17372 1 0.352309 0.265804 0.0503911
17374 1 0.380501 0.605229 0.0506908
16818 3 0.394448 0.774448 0.0253797
16824 3 0.394448 0.274448 0.0253797
16825 3 0.408522 0.444157 0.00039968
16826 3 0.436669 0.781972 0.00039968
16827 3 0.422595 0.112439 0.0253797
16831 3 0.408522 0.944158 0.00039968
16832 3 0.436669 0.281973 0.00039968
16833 3 0.422595 0.612438 0.0253797
17377 1 0.408647 0.442873 0.0507134
17378 1 0.436717 0.78076 0.0505795
17383 1 0.408647 0.942873 0.0507134
17384 1 0.436717 0.28076 0.0505795
16828 3 0.464816 0.11985 0.00039968
16829 3 0.450743 0.450517 0.0253797
16830 3 0.47889 0.788652 0.0253797
16834 3 0.464816 0.619849 0.00039968
16835 3 0.450743 0.950517 0.0253797
16836 3 0.47889 0.288653 0.0253797
17380 1 0.464833 0.119084 0.0505629
17386 1 0.464833 0.619084 0.0505629
16837 3 0.492963 0.45776 0.00039968
16843 3 0.492963 0.957761 0.00039968
17389 1 0.492957 0.457466 0.0505708
17395 1 0.492957 0.957466 0.0505708
17894 3 0.183345 0.737934 0.10032
17895 3 0.169271 0.0670198 0.1253
17900 3 0.183345 0.237935 0.10032
17901 3 0.169271 0.567019 0.1253
17346 3 0.225565 0.745679 0.0753397
17352 3 0.225565 0.24568 0.0753397
17355 3 0.253713 0.082914 0.0753397
17361 3 0.253713 0.582913 0.0753397
17896 3 0.211492 0.0748826 0.10032
17897 3 0.197418 0.403886 0.1253
17898 1 0.225756 0.741432 0.125524
17902 3 0.211492 0.574882 0.10032
17903 3 0.197418 0.903886 0.1253
17904 1 0.225756 0.241432 0.125524
17905 3 0.239639 0.412086 0.10032
17907 1 0.253909 0.0788864 0.125617
17911 3 0.239639 0.912086 0.10032
17913 1 0.253909 0.578886 0.125617
17357 3 0.28186 0.420384 0.0753397
17358 1 0.310098 0.758636 0.0756391
17363 3 0.28186 0.920385 0.0753397
17364 1 0.310098 0.258636 0.0756391
17906 1 0.267917 0.750241 0.10056
17908 1 0.296099 0.0877967 0.100669
17909 1 0.281994 0.416444 0.125552
17910 1 0.310135 0.754435 0.12555
17912 1 0.267917 0.250241 0.10056
17914 1 0.296099 0.587797 0.100669
17915 1 0.281994 0.916444 0.125552
17916 1 0.310135 0.254435 0.12555
17367 1 0.338314 0.0962453 0.0756332
17369 1 0.366421 0.434276 0.0755991
17373 1 0.338314 0.596245 0.0756332
17375 1 0.366421 0.934276 0.0755991
17917 1 0.324214 0.425585 0.100569
17918 1 0.352342 0.763654 0.100547
17919 1 0.338263 0.0924908 0.125523
17920 1 0.380469 0.101985 0.100567
17921 1 0.36639 0.430909 0.125518
17923 1 0.324214 0.925585 0.100569
17924 1 0.352342 0.263654 0.100547
17925 1 0.338263 0.592491 0.125523
17926 1 0.380469 0.601985 0.100567
17927 1 0.36639 0.930909 0.125518
17370 1 0.39456 0.772791 0.0756314
17376 1 0.39456 0.272791 0.0756314
17379 1 0.422686 0.111078 0.0755814
17385 1 0.422686 0.611078 0.0755814
17922 1 0.394524 0.76966 0.125525
17928 1 0.394524 0.26966 0.125525
17929 1 0.408611 0.440639 0.100573
17930 1 0.436734 0.779316 0.100543
17931 1 0.422658 0.108665 0.125524
17935 1 0.408611 0.940639 0.100573
17936 1 0.436734 0.279316 0.100543
17937 1 0.422658 0.608665 0.125524
17381 1 0.450788 0.449345 0.0755263
17382 1 0.478899 0.787902 0.0755152
17387 1 0.450788 0.949345 0.0755263
17388 1 0.478899 0.287902 0.0755152
17932 1 0.464845 0.118056 0.10052
17933 1 0.450783 0.447781 0.125514
17934 1 0.478901 0.787019 0.125508
17938 1 0.464845 0.618056 0.10052
17939 1 0.450783 0.947781 0.125514
17940 1 0.478901 0.287019 0.125508
17941 1 0.492958 0.456971 0.100516
17947 1 0.492958 0.956971 0.100516
18436 3 0.127051 0.0594664 0.15028
18437 3 0.112977 0.388412 0.17526
18442 3 0.127051 0.559466 0.15028
18443 3 0.112977 0.888413 0.17526
18438 3 0.141124 0.724745 0.17526
18444 3 0.141124 0.224745 0.17526
18445 3 0.155198 0.395949 0.15028
18446 1 0.183306 0.731592 0.150354
18447 1 0.169463 0.0617925 0.175514
18451 3 0.155198 0.89595 0.15028
18452 1 0.183306 0.231592 0.150354
18453 1 0.169463 0.561792 0.175514
18448 1 0.211634 0.0697367 0.150553
18449 1 0.197537 0.398053 0.175461
18450 1 0.225651 0.735344 0.17544
18454 1 0.211634 0.569737 0.150553
18455 1 0.197537 0.898053 0.175461
18456 1 0.225651 0.235344 0.17544
18457 1 0.239753 0.407231 0.150503
18459 1 0.253794 0.0728459 0.175439
18463 1 0.239753 0.907231 0.150503
18465 1 0.253794 0.572846 0.175439
18458 1 0.267904 0.744916 0.15051
18460 1 0.296037 0.0826918 0.150494
18461 1 0.281934 0.410672 0.175435
18462 1 0.310072 0.74878 0.175427
18464 1 0.267904 0.244916 0.15051
18466 1 0.296037 0.582692 0.150494
18467 1 0.281934 0.910672 0.175435
18468 1 0.310072 0.24878 0.175427
18469 1 0.324173 0.420895 0.150481
18470 1 0.352305 0.759354 0.150474
18471 1 0.338211 0.0872976 0.175426
18472 1 0.380439 0.0981995 0.15048
18473 1 0.366349 0.42624 0.175431
18475 1 0.324173 0.920895 0.150481
18476 1 0.352305 0.259354 0.150474
18477 1 0.338211 0.587298 0.175426
18478 1 0.380439 0.598199 0.15048
18479 1 0.366349 0.92624 0.175431
18474 1 0.394488 0.76563 0.175443
18480 1 0.394488 0.26563 0.175443
18481 1 0.408576 0.437425 0.15049
18482 1 0.436709 0.776915 0.150494
18483 1 0.422627 0.10542 0.175457
18487 1 0.408576 0.937425 0.15049
18488 1 0.436709 0.276915 0.150494
18489 1 0.422627 0.60542 0.175457
18484 1 0.464836 0.116578 0.150495
18485 1 0.450762 0.445509 0.175469
18486 1 0.478894 0.785799 0.175477
18490 1 0.464836 0.616578 0.150495
18491 1 0.450762 0.945509 0.175469
18492 1 0.478894 0.285799 0.175477
18493 1 0.492959 0.456356 0.150499
18499 1 0.492959 0.956356 0.150499
18986 3 0.0989034 0.717275 0.20024
18987 3 0.0848298 0.0460813 0.22522
18988 3 0.127051 0.0534293 0.20024
18989 3 0.112977 0.382031 0.22522
18992 3 0.0989034 0.217276 0.20024
18993 3 0.0848298 0.546081 0.22522
18994 3 0.127051 0.553429 0.20024
18995 3 0.112977 0.882031 0.22522
18990 1 0.141258 0.718052 0.225352
18996 1 0.141258 0.218052 0.225352
18997 1 0.155408 0.389898 0.200506
18998 1 0.183482 0.726571 0.200438
18999 1 0.169366 0.0546498 0.225374
19003 1 0.155408 0.889898 0.200506
19004 1 0.183482 0.226571 0.200438
19005 1 0.169366 0.55465 0.225374
19000 1 0.211581 0.0633227 0.200392
19001 1 0.197495 0.39129 0.225358
19002 1 0.225609 0.728228 0.225327
19006 1 0.211581 0.563323 0.200392
19007 1 0.197495 0.89129 0.225358
19008 1 0.225609 0.228228 0.225327
19009 1 0.239699 0.400599 0.200376
19011 1 0.253733 0.0655839 0.225313
19015 1 0.239699 0.900599 0.200376
19017 1 0.253733 0.565584 0.225313
19010 1 0.26783 0.738233 0.200369
19012 1 0.295969 0.0762686 0.200368
19013 1 0.281864 0.403426 0.225307
19014 1 0.310001 0.741778 0.225306
19016 1 0.26783 0.238233 0.200369
19018 1 0.295969 0.576269 0.200368
19019 1 0.281864 0.903426 0.225307
19020 1 0.310001 0.241778 0.225306
19021 1 0.324108 0.414754 0.200368
19022 1 0.352249 0.753735 0.200375
19023 1 0.338142 0.0806874 0.225311
19024 1 0.380392 0.0932395 0.200389
19025 1 0.366287 0.420207 0.225325
19027 1 0.324108 0.914754 0.200368
19028 1 0.352249 0.253735 0.200375
19029 1 0.338142 0.580687 0.225311
19030 1 0.380392 0.593239 0.200389
19031 1 0.366287 0.920207 0.225325
19026 1 0.394434 0.760368 0.225346
19032 1 0.394434 0.260368 0.225346
19033 1 0.408535 0.43326 0.200408
19034 1 0.436678 0.77373 0.200428
19035 1 0.422584 0.101143 0.225373
19039 1 0.408535 0.93326 0.200408
19040 1 0.436678 0.27373 0.200428
19041 1 0.422584 0.601144 0.225373
19036 1 0.464819 0.11454 0.200445
19037 1 0.450733 0.442448 0.225399
19038 1 0.478881 0.784143 0.225418
19042 1 0.464819 0.61454 0.200445
19043 1 0.450733 0.942448 0.225399
19044 1 0.478881 0.284143 0.225418
19045 1 0.492958 0.455573 0.200455
19051 1 0.492958 0.955573 0.200455
19530 3 0.0566827 0.703635 0.27518
19536 3 0.0566827 0.203636 0.27518
20080 3 0.0426091 0.0324439 0.30016
20086 3 0.0426091 0.532443 0.30016
19537 3 0.0707563 0.374857 0.2502
19538 3 0.0989034 0.710583 0.2502
19539 3 0.0848298 0.0391184 0.27518
19540 1 0.12718 0.046341 0.250298
19541 1 0.11311 0.37464 0.275263
19543 3 0.0707563 0.874858 0.2502
19544 3 0.0989034 0.210583 0.2502
19545 3 0.0848298 0.539118 0.27518
19546 1 0.12718 0.546341 0.250298
19547 1 0.11311 0.87464 0.275263
20089 3 0.0707563 0.367672 0.30016
20090 1 0.0990479 0.702937 0.300233
20092 1 0.127118 0.0384116 0.300193
20095 3 0.0707563 0.867672 0.30016
20096 1 0.0990479 0.202937 0.300233
20098 1 0.127118 0.538412 0.300193
19542 1 0.14118 0.710427 0.275232
19548 1 0.14118 0.210427 0.275232
19549 1 0.155257 0.382469 0.250287
19550 1 0.183391 0.719008 0.250298
19551 1 0.169299 0.0465742 0.275235
19555 1 0.155257 0.882469 0.250287
19556 1 0.183391 0.219008 0.250298
19557 1 0.169299 0.546574 0.275235
20101 1 0.15523 0.374183 0.300187
20102 1 0.183341 0.710303 0.30018
20107 1 0.15523 0.874183 0.300187
20108 1 0.183341 0.210303 0.30018
19552 1 0.211513 0.0557325 0.250281
19553 1 0.19742 0.383053 0.275229
19554 1 0.225543 0.719845 0.275216
19558 1 0.211513 0.555733 0.250281
19559 1 0.19742 0.883053 0.275229
19560 1 0.225543 0.219845 0.275216
19561 1 0.239637 0.392792 0.250264
19563 1 0.253664 0.0570628 0.2752
19567 1 0.239637 0.892792 0.250264
19569 1 0.253664 0.557063 0.2752
20104 1 0.211458 0.0467712 0.30017
20110 1 0.211458 0.546771 0.30017
20113 1 0.239573 0.383634 0.300155
20119 1 0.239573 0.883634 0.300155
19562 1 0.267762 0.730339 0.250251
19564 1 0.295893 0.0684376 0.250244
19565 1 0.281788 0.394817 0.275188
19566 1 0.309919 0.733202 0.275181
19568 1 0.267762 0.230339 0.250251
19570 1 0.295893 0.568438 0.250244
19571 1 0.281788 0.894817 0.275188
19572 1 0.309919 0.233202 0.275181
20114 1 0.267691 0.720991 0.300139
20116 1 0.295812 0.0589492 0.300125
20120 1 0.267691 0.220991 0.300139
20122 1 0.295812 0.558949 0.300125
19573 1 0.324031 0.407147 0.250245
19574 1 0.352174 0.746548 0.250255
19575 1 0.338057 0.0723288 0.275183
19576 1 0.380323 0.0867113 0.250275
19577 1 0.366204 0.412312 0.275198
19579 1 0.324031 0.907147 0.250245
19580 1 0.352174 0.246548 0.250255
19581 1 0.338057 0.572329 0.275183
19582 1 0.380323 0.586711 0.250275
19583 1 0.366204 0.912312 0.275198
20125 1 0.323942 0.397647 0.300118
20126 1 0.352081 0.737246 0.300122
20128 1 0.380232 0.0779249 0.30014
20131 1 0.323942 0.897647 0.300118
20132 1 0.352081 0.237246 0.300122
20134 1 0.380232 0.577925 0.30014
20144 1 0.436572 0.263111 0.300217
20143 1 0.408396 0.919852 0.300173
19578 1 0.39436 0.753256 0.275225
19584 1 0.39436 0.253256 0.275225
19585 1 0.408478 0.427667 0.250305
19586 1 0.436635 0.769383 0.250338
19587 1 0.422523 0.0952139 0.275262
19591 1 0.408478 0.927667 0.250305
19592 1 0.436635 0.269383 0.250338
19593 1 0.422523 0.595214 0.275262
20137 1 0.408396 0.419852 0.300173
20138 1 0.436572 0.763111 0.300217
20146 1 0.464754 0.607587 0.300261
19588 1 0.464793 0.11173 0.250368
19589 1 0.450691 0.438127 0.275302
19590 1 0.478861 0.78179 0.275333
19594 1 0.464793 0.61173 0.250368
19595 1 0.450691 0.938127 0.275302
19596 1 0.478861 0.281791 0.275333
20140 1 0.464754 0.107588 0.300261
19597 1 0.492951 0.454505 0.250386
19603 1 0.492951 0.954504 0.250386
20149 1 0.492939 0.452945 0.300289
20155 1 0.492939 0.952944 0.300289
20640 1 0.0569758 0.187256 0.375177
20639 3 0.0285356 0.853772 0.3751
20638 3 0.0426091 0.524968 0.35012
20636 3 0.014462 0.190264 0.35012
20634 1 0.0569758 0.687256 0.375177
20633 3 0.0285356 0.353771 0.3751
20632 3 0.0426091 0.0249689 0.35012
20630 3 0.014462 0.690264 0.35012
20081 3 0.0285356 0.361311 0.32514
20082 3 0.0566827 0.696278 0.32514
20087 3 0.0285356 0.861311 0.32514
20088 3 0.0566827 0.196279 0.32514
20651 1 0.11313 0.857141 0.375115
20650 1 0.127154 0.529388 0.350126
20649 1 0.0850558 0.522234 0.375143
20648 1 0.0990749 0.194177 0.350143
20647 1 0.0710787 0.859303 0.350192
20645 1 0.11313 0.357141 0.375115
20644 1 0.127154 0.0293878 0.350126
20643 1 0.0850558 0.0222337 0.375143
20642 1 0.0990748 0.694177 0.350143
20641 1 0.0710787 0.359304 0.350192
20091 1 0.0850048 0.031208 0.325203
20093 1 0.113076 0.366369 0.325162
20097 1 0.0850048 0.531208 0.325203
20099 1 0.113076 0.866369 0.325162
20661 1 0.169297 0.527523 0.375078
20660 1 0.183336 0.200536 0.3501
20659 1 0.155239 0.864831 0.350112
20655 1 0.169297 0.0275226 0.375078
20654 1 0.183336 0.700536 0.3501
20653 1 0.155239 0.364831 0.350112
20652 1 0.141206 0.192212 0.375094
20646 1 0.141206 0.692212 0.375094
20094 1 0.14118 0.7018 0.325151
20100 1 0.14118 0.2018 0.325151
20103 1 0.169281 0.0375523 0.32514
20109 1 0.169281 0.537552 0.32514
20673 1 0.253577 0.535301 0.375019
20671 1 0.239535 0.872989 0.350065
20667 1 0.253577 0.035301 0.375019
20665 1 0.239535 0.372989 0.350065
20664 1 0.225483 0.198998 0.375042
20663 1 0.197389 0.863098 0.375061
20662 1 0.211435 0.53657 0.350084
20658 1 0.225483 0.698998 0.375042
20657 1 0.197389 0.363098 0.375061
20656 1 0.211435 0.0365704 0.350084
20105 1 0.197389 0.373644 0.32513
20106 1 0.225496 0.710108 0.325115
20111 1 0.197389 0.873644 0.32513
20112 1 0.225496 0.210108 0.325115
20115 1 0.253605 0.0470172 0.325097
20121 1 0.253605 0.547017 0.325097
20676 1 0.309769 0.209636 0.374969
20675 1 0.281672 0.872127 0.374995
20674 1 0.295742 0.547416 0.350022
20672 1 0.267637 0.209895 0.350044
20670 1 0.309769 0.709636 0.374969
20669 1 0.281672 0.372127 0.374995
20668 1 0.295742 0.0474165 0.350022
20666 1 0.267637 0.709895 0.350044
20117 1 0.281717 0.38448 0.325078
20118 1 0.309834 0.722632 0.325063
20123 1 0.281717 0.88448 0.325078
20124 1 0.309834 0.222632 0.325063
20687 1 0.365986 0.887757 0.374925
20686 1 0.380114 0.565858 0.34999
20685 1 0.337872 0.548068 0.374944
20684 1 0.351975 0.225099 0.34999
20683 1 0.323854 0.885732 0.350003
20681 1 0.365986 0.387756 0.374925
20680 1 0.380114 0.0658586 0.34999
20679 1 0.337872 0.0480673 0.374944
20678 1 0.351975 0.7251 0.34999
20677 1 0.323854 0.385732 0.350003
20127 1 0.337961 0.0616583 0.325054
20129 1 0.3661 0.4018 0.325058
20133 1 0.337961 0.561658 0.325054
20135 1 0.3661 0.901801 0.325058
20697 1 0.422288 0.573098 0.374933
20696 1 0.436467 0.253354 0.350053
20695 1 0.408277 0.908454 0.35001
20691 1 0.422288 0.0730971 0.374933
20690 1 0.436467 0.753355 0.350053
20689 1 0.408277 0.408455 0.35001
20688 1 0.394121 0.229196 0.374918
20682 1 0.394121 0.729195 0.374918
20145 1 0.422432 0.586538 0.325116
20130 1 0.394257 0.743334 0.325078
20136 1 0.394257 0.243335 0.325078
20139 1 0.422432 0.0865372 0.325116
20700 1 0.478758 0.271642 0.375042
20699 1 0.450501 0.920415 0.374978
20698 1 0.464684 0.600824 0.350111
20694 1 0.478758 0.771641 0.375042
20693 1 0.450501 0.420414 0.374978
20692 1 0.464684 0.100826 0.350111
20148 1 0.478827 0.278134 0.325214
20147 1 0.450624 0.931539 0.325168
20142 1 0.478827 0.778134 0.325214
20141 1 0.450624 0.431538 0.325168
20707 1 0.492916 0.950404 0.350153
20701 1 0.492916 0.450405 0.350153
21192 1 0.056987 0.179265 0.425075
21191 3 0.0285356 0.845838 0.42506
21190 3 0.0426091 0.51701 0.40008
21189 3 0.00038843 0.511806 0.42506
21188 3 0.014462 0.182711 0.40008
21186 1 0.056987 0.679265 0.425075
21185 3 0.0285356 0.345838 0.42506
21184 3 0.0426091 0.0170102 0.40008
21183 3 0.00038843 0.0118065 0.42506
21182 3 0.014462 0.682711 0.40008
21203 1 0.113135 0.847586 0.425059
21202 1 0.12717 0.519811 0.400079
21201 1 0.0850317 0.51328 0.425062
21200 1 0.0990763 0.185173 0.400099
21199 1 0.0709728 0.850735 0.400109
21197 1 0.113135 0.347586 0.425059
21196 1 0.12717 0.0198107 0.400079
21195 1 0.0850317 0.0132804 0.425062
21194 1 0.0990763 0.685173 0.400099
21193 1 0.0709728 0.350735 0.400109
21213 1 0.169326 0.51667 0.42503
21212 1 0.183354 0.189776 0.400044
21211 1 0.155263 0.854683 0.400062
21207 1 0.169326 0.0166703 0.42503
21206 1 0.183354 0.689776 0.400044
21205 1 0.155263 0.354683 0.400062
21204 1 0.141232 0.182049 0.425045
21198 1 0.141232 0.682049 0.425045
21225 1 0.253597 0.521862 0.42497
21223 1 0.239535 0.860808 0.400004
21219 1 0.253597 0.0218618 0.42497
21217 1 0.239535 0.360808 0.400004
21216 1 0.225509 0.186521 0.424992
21215 1 0.197419 0.85148 0.425012
21214 1 0.211446 0.52513 0.400025
21210 1 0.225509 0.686521 0.424992
21209 1 0.197419 0.351479 0.425012
21208 1 0.211446 0.02513 0.400025
21228 1 0.309763 0.193879 0.424915
21227 1 0.281682 0.857595 0.424944
21226 1 0.295712 0.533537 0.399951
21224 1 0.267624 0.196897 0.399979
21222 1 0.309763 0.693878 0.424915
21221 1 0.281682 0.357595 0.424944
21220 1 0.295712 0.0335367 0.399951
21218 1 0.267624 0.696897 0.399979
21239 1 0.365918 0.869171 0.424844
21238 1 0.379993 0.549281 0.399861
21237 1 0.337841 0.53095 0.424881
21236 1 0.351891 0.209359 0.39989
21235 1 0.3238 0.870923 0.399921
21233 1 0.365918 0.36917 0.424844
21232 1 0.379993 0.049282 0.399861
21231 1 0.337841 0.03095 0.424881
21230 1 0.351891 0.709359 0.39989
21229 1 0.3238 0.370923 0.399921
21249 1 0.422099 0.551765 0.424761
21248 1 0.436284 0.236962 0.399839
21247 1 0.408117 0.891401 0.399841
21243 1 0.422099 0.0517623 0.424761
21242 1 0.436284 0.736964 0.399839
21241 1 0.408117 0.391401 0.399841
21240 1 0.393999 0.209107 0.424803
21234 1 0.393999 0.709107 0.424803
21252 1 0.478564 0.257046 0.424757
21251 1 0.45025 0.899482 0.424715
21250 1 0.464531 0.588027 0.399883
21246 1 0.478565 0.757043 0.424757
21245 1 0.45025 0.39948 0.424715
21244 1 0.464531 0.0880285 0.399883
21259 1 0.492862 0.945395 0.399954
21253 1 0.492862 0.445398 0.399954
21744 1 0.0570576 0.170282 0.475045
21743 3 0.0285356 0.837648 0.47502
21742 1 0.0428977 0.507919 0.450108
21741 3 0.00038843 0.50407 0.47502
21740 3 0.014462 0.174855 0.45004
21738 1 0.0570576 0.670282 0.475045
21737 3 0.0285356 0.337647 0.47502
21736 1 0.0428977 0.00791872 0.450108
21735 3 0.00038843 0.00407004 0.47502
21734 3 0.014462 0.674854 0.45004
22286 3 0.014462 0.666835 0.5
22288 1 0.0428832 0.999181 0.499999
22292 3 0.014462 0.166835 0.5
22294 1 0.0428832 0.499181 0.499999
21755 1 0.113185 0.837463 0.475009
21754 1 0.127205 0.509621 0.450027
21753 1 0.0850995 0.503762 0.47502
21752 1 0.0991127 0.175557 0.450035
21751 1 0.0710136 0.84166 0.450045
21749 1 0.113185 0.337463 0.475009
21748 1 0.127205 0.00962061 0.450027
21747 1 0.0850995 0.00376156 0.47502
21746 1 0.0991127 0.675557 0.450035
21745 1 0.0710136 0.34166 0.450045
22298 1 0.0991568 0.665755 0.499994
22300 1 0.127252 0.9991 0.499984
22304 1 0.0991568 0.165755 0.499994
22306 1 0.127252 0.4991 0.499984
21765 1 0.169379 0.505096 0.474986
21764 1 0.183398 0.178112 0.45
21763 1 0.155303 0.843814 0.450015
21759 1 0.169379 0.00509615 0.474986
21758 1 0.183398 0.678112 0.45
21757 1 0.155303 0.343814 0.450015
21756 1 0.14128 0.171267 0.474999
21750 1 0.14128 0.671267 0.474999
22309 1 0.155356 0.3325 0.499972
22310 1 0.18346 0.66587 0.499957
22315 1 0.155356 0.8325 0.499972
22316 1 0.18346 0.16587 0.499957
21777 1 0.253672 0.506905 0.474935
21775 1 0.239584 0.847152 0.449962
21771 1 0.253672 0.00690459 0.474935
21769 1 0.239584 0.347152 0.449962
21768 1 0.225576 0.172897 0.474954
21767 1 0.197478 0.838971 0.474971
21766 1 0.211492 0.512544 0.449982
21762 1 0.225576 0.672897 0.474954
21761 1 0.197478 0.338971 0.474971
21760 1 0.211492 0.0125441 0.449982
22312 1 0.211566 0.999202 0.499942
22318 1 0.211566 0.499202 0.499942
22321 1 0.239671 0.33247 0.499926
22327 1 0.239671 0.83247 0.499926
21780 1 0.309852 0.175346 0.474894
21779 1 0.281765 0.841031 0.474915
21778 1 0.295756 0.517167 0.449915
21776 1 0.267672 0.181995 0.44994
21774 1 0.309852 0.675346 0.474894
21773 1 0.281765 0.341031 0.474915
21772 1 0.295756 0.0171673 0.449915
21770 1 0.267672 0.681995 0.44994
22322 1 0.267775 0.665679 0.49991
22324 1 0.295877 0.998811 0.499895
22328 1 0.267775 0.165679 0.49991
22330 1 0.295877 0.498811 0.499895
21791 1 0.366 0.845095 0.474845
21790 1 0.379963 0.526814 0.449814
21789 1 0.337932 0.509968 0.474871
21788 1 0.351903 0.189245 0.449854
21787 1 0.323833 0.852834 0.449887
21785 1 0.366 0.345095 0.474845
21784 1 0.379963 0.0268136 0.449814
21783 1 0.337932 0.00996748 0.474871
21782 1 0.351903 0.689246 0.449854
21781 1 0.323833 0.352834 0.449887
22333 1 0.323974 0.331862 0.499881
22334 1 0.352065 0.664802 0.499869
22336 1 0.380145 0.997525 0.499861
22339 1 0.323974 0.831861 0.499881
22340 1 0.352065 0.164803 0.499869
22342 1 0.380145 0.497523 0.499861
21801 1 0.422051 0.51833 0.474769
21800 1 0.436061 0.20892 0.449689
21799 1 0.408014 0.866249 0.449762
21795 1 0.422051 0.0183307 0.474769
21794 1 0.436061 0.70892 0.449689
21793 1 0.408014 0.366251 0.449762
21792 1 0.394045 0.181026 0.474813
21786 1 0.394045 0.681024 0.474813
22345 1 0.408206 0.329718 0.49986
22346 1 0.436242 0.660524 0.499878
22351 1 0.408206 0.829719 0.49986
22352 1 0.436242 0.160522 0.499878
22348 1 0.464326 0.987556 0.499948
22354 1 0.464326 0.487557 0.499948
21804 1 0.47807 0.208778 0.474544
21803 1 0.450016 0.858294 0.474703
21802 1 0.464177 0.559361 0.449568
21798 1 0.47807 0.708778 0.474544
21797 1 0.450016 0.358291 0.474703
21796 1 0.464177 0.059364 0.449568
21811 1 0.492666 0.929809 0.449647
21805 1 0.492666 0.429811 0.449647
22287 3 0.00038843 0.996256 0.52498
22289 3 0.0285356 0.329364 0.52498
22290 1 0.0570693 0.661441 0.524957
22293 3 0.00038843 0.496256 0.52498
22295 3 0.0285356 0.829364 0.52498
22296 1 0.0570693 0.161441 0.524957
22838 3 0.014462 0.658812 0.54996
22840 1 0.0429129 0.990843 0.549892
22844 3 0.014462 0.158812 0.54996
22846 1 0.0429129 0.490843 0.549892
22299 1 0.0851211 0.994329 0.524975
22301 1 0.113217 0.327344 0.524969
22305 1 0.0851211 0.494329 0.524975
22307 1 0.113217 0.827344 0.524969
22849 1 0.0710452 0.323479 0.549957
22850 1 0.0991645 0.6561 0.54995
22852 1 0.127277 0.988728 0.549938
22855 1 0.0710452 0.823479 0.549957
22856 1 0.0991645 0.1561 0.54995
22858 1 0.127277 0.488728 0.549938
22297 1 0.0710499 0.33252 0.500001
22303 1 0.0710499 0.83252 0.500001
22302 1 0.141324 0.660368 0.524956
22308 1 0.141324 0.160368 0.524956
22311 1 0.169435 0.993296 0.524942
22317 1 0.169435 0.493296 0.524942
22861 1 0.155398 0.321276 0.549924
22862 1 0.183518 0.653661 0.54991
22867 1 0.155398 0.821276 0.549924
22868 1 0.183518 0.153661 0.54991
22313 1 0.197548 0.326115 0.524927
22314 1 0.225661 0.658776 0.524912
22319 1 0.197548 0.826115 0.524927
22320 1 0.225661 0.158776 0.524912
22323 1 0.253776 0.991235 0.524899
22329 1 0.253776 0.491235 0.524899
22864 1 0.211639 0.985837 0.549895
22870 1 0.211639 0.485837 0.549895
22873 1 0.239761 0.317725 0.549882
22879 1 0.239761 0.817725 0.549882
22325 1 0.28189 0.323434 0.524887
22326 1 0.310003 0.655267 0.524879
22331 1 0.28189 0.823434 0.524887
22332 1 0.310003 0.155267 0.524879
22874 1 0.267885 0.649237 0.549873
22876 1 0.296009 0.980232 0.549867
22880 1 0.267885 0.149238 0.549873
22882 1 0.296009 0.480232 0.549867
22335 1 0.338115 0.986588 0.524876
22337 1 0.366224 0.317066 0.524883
22341 1 0.338115 0.486588 0.524876
22343 1 0.366224 0.817066 0.524883
22885 1 0.324133 0.310504 0.549869
22886 1 0.352256 0.639714 0.549883
22888 1 0.380376 0.967199 0.549919
22891 1 0.324133 0.810505 0.549869
22892 1 0.352256 0.139713 0.549883
22894 1 0.380376 0.4672 0.549919
22338 1 0.394329 0.646026 0.524908
22344 1 0.394329 0.146025 0.524908
22347 1 0.422432 0.972058 0.52497
22353 1 0.422432 0.47206 0.52497
22897 1 0.408493 0.291846 0.549991
22898 1 0.436608 0.611618 0.550131
22903 1 0.408492 0.791844 0.549991
22904 1 0.436608 0.11162 0.550131
22915 1 0.492881 0.725313 0.550784
22909 1 0.492881 0.225312 0.550784
22349 1 0.450557 0.291829 0.525104
22350 1 0.4787 0.596057 0.525462
22355 1 0.450556 0.791827 0.525104
22356 1 0.4787 0.0960588 0.525462
22900 1 0.464718 0.923127 0.55042
22906 1 0.464718 0.423125 0.55042
22357 1 0.492599 0.29178 0.50023
22363 1 0.492599 0.791779 0.50023
22839 3 0.00038843 0.988514 0.57494
22841 3 0.0285356 0.321166 0.57494
22842 1 0.0570175 0.65309 0.574937
22845 3 0.00038843 0.488513 0.57494
22847 3 0.0285356 0.821166 0.57494
22848 1 0.0570175 0.15309 0.574937
23390 3 0.014462 0.650945 0.59992
23392 1 0.0426806 0.983769 0.599977
23393 3 0.0285356 0.313219 0.6249
23394 1 0.0570301 0.644279 0.624847
23396 3 0.014462 0.150946 0.59992
23398 1 0.0426806 0.483769 0.599977
23399 3 0.0285356 0.813219 0.6249
23400 1 0.0570301 0.144279 0.624847
22851 1 0.0850922 0.985273 0.574931
22853 1 0.113224 0.317568 0.574914
22857 1 0.0850922 0.485273 0.574931
22859 1 0.113224 0.817568 0.574914
23401 1 0.0710439 0.314951 0.599898
23402 1 0.0991722 0.646856 0.599884
23403 1 0.0851404 0.976394 0.624856
23404 1 0.127295 0.978758 0.599879
23405 1 0.113246 0.308178 0.624856
23407 1 0.0710439 0.814951 0.599898
23408 1 0.0991722 0.146856 0.599884
23409 1 0.0851404 0.476394 0.624856
23410 1 0.127295 0.478758 0.599879
23411 1 0.113246 0.808178 0.624856
22854 1 0.141349 0.649787 0.574903
22860 1 0.141349 0.149787 0.574903
22863 1 0.169476 0.981826 0.57489
22869 1 0.169476 0.481826 0.57489
23406 1 0.141359 0.639763 0.624849
23412 1 0.141359 0.139763 0.624849
23413 1 0.155423 0.310542 0.599869
23414 1 0.183552 0.642072 0.599855
23415 1 0.169488 0.971115 0.624835
23419 1 0.155423 0.810542 0.599869
23420 1 0.183552 0.142072 0.599855
23421 1 0.169488 0.471115 0.624835
22865 1 0.197602 0.313624 0.574876
22866 1 0.22573 0.645096 0.574863
22871 1 0.197602 0.813624 0.574876
22872 1 0.22573 0.145096 0.574863
22875 1 0.25386 0.976137 0.574853
22881 1 0.25386 0.476137 0.574853
23416 1 0.211684 0.973258 0.599842
23417 1 0.197622 0.302119 0.624819
23418 1 0.22576 0.632679 0.624807
23422 1 0.211684 0.473258 0.599842
23423 1 0.197622 0.802119 0.624819
23424 1 0.22576 0.132679 0.624807
23425 1 0.239818 0.303999 0.599831
23427 1 0.253898 0.962682 0.624802
23431 1 0.239818 0.803999 0.599831
23433 1 0.253898 0.462682 0.624802
22877 1 0.281991 0.306603 0.574849
22878 1 0.310122 0.636279 0.574854
22883 1 0.281991 0.806603 0.574849
22884 1 0.310122 0.136279 0.574854
23426 1 0.267953 0.634159 0.599827
23428 1 0.296087 0.963548 0.599832
23429 1 0.282034 0.291972 0.624805
23430 1 0.310167 0.620346 0.624823
23432 1 0.267953 0.134159 0.599827
23434 1 0.296087 0.463548 0.599832
23435 1 0.282034 0.791972 0.624805
23436 1 0.310167 0.120346 0.624823
22887 1 0.338251 0.964868 0.574871
22889 1 0.366376 0.29187 0.574909
22893 1 0.338251 0.464869 0.574871
22895 1 0.366376 0.791869 0.574909
23437 1 0.324218 0.291916 0.59985
23438 1 0.352345 0.618909 0.599887
23439 1 0.338295 0.947554 0.624858
23440 1 0.380465 0.944031 0.599952
23441 1 0.366415 0.273274 0.624916
23443 1 0.324218 0.791916 0.59985
23444 1 0.352345 0.11891 0.599887
23445 1 0.338295 0.447554 0.624858
23446 1 0.380465 0.44403 0.599952
23447 1 0.366415 0.773275 0.624916
22890 1 0.394496 0.616507 0.574979
22896 1 0.394496 0.116508 0.57498
22899 1 0.422609 0.937662 0.575102
22905 1 0.422609 0.437661 0.575102
23442 1 0.394529 0.597154 0.625005
23448 1 0.394529 0.0971539 0.625005
23449 1 0.408578 0.266645 0.600057
23450 1 0.436685 0.586155 0.600213
23451 1 0.422639 0.918904 0.625129
23455 1 0.408578 0.766646 0.600057
23456 1 0.436685 0.0861536 0.600213
23457 1 0.422639 0.418905 0.625129
23467 1 0.492959 0.717365 0.600529
23461 1 0.492959 0.217366 0.600529
22901 1 0.450715 0.253945 0.575311
22902 1 0.478843 0.565302 0.575569
22907 1 0.450715 0.753947 0.575311
22908 1 0.478843 0.0653005 0.575569
23452 1 0.464804 0.902622 0.600401
23453 1 0.450755 0.238576 0.625274
23454 1 0.478891 0.556824 0.625398
23458 1 0.464804 0.402623 0.600401
23459 1 0.450755 0.738576 0.625274
23460 1 0.478891 0.0568243 0.625398
23942 3 0.014462 0.643377 0.64988
23944 3 0.0426091 0.975355 0.64988
23945 3 0.0285356 0.305661 0.67486
23946 3 0.0566827 0.637375 0.67486
23948 3 0.014462 0.143378 0.64988
23950 3 0.0426091 0.475354 0.64988
23951 3 0.0285356 0.805661 0.67486
23952 3 0.0566827 0.137376 0.67486
23953 1 0.0711215 0.306632 0.649816
23954 1 0.0991592 0.63811 0.649843
23955 1 0.085042 0.968765 0.674795
23956 1 0.12728 0.969526 0.649832
23957 1 0.113161 0.299871 0.674813
23959 1 0.0711215 0.806632 0.649816
23960 1 0.0991592 0.13811 0.649843
23961 1 0.085042 0.468765 0.674795
23962 1 0.12728 0.469526 0.649832
23963 1 0.113161 0.799871 0.674813
23958 1 0.141312 0.63085 0.674794
23964 1 0.141312 0.13085 0.674794
23965 1 0.155408 0.300717 0.649816
23966 1 0.183547 0.631591 0.649797
23967 1 0.169457 0.961605 0.674774
23971 1 0.155408 0.800717 0.649816
23972 1 0.183547 0.131591 0.649797
23973 1 0.169457 0.461605 0.674774
23968 1 0.211688 0.962054 0.649782
23969 1 0.197606 0.292016 0.674754
23970 1 0.225752 0.621956 0.674744
23974 1 0.211688 0.462054 0.649782
23975 1 0.197606 0.792016 0.674754
23976 1 0.225752 0.121956 0.674744
23977 1 0.23983 0.291993 0.649774
23979 1 0.253894 0.951311 0.674744
23983 1 0.23983 0.791993 0.649774
23985 1 0.253894 0.451311 0.674744
23978 1 0.267968 0.621288 0.649776
23980 1 0.296103 0.949783 0.649791
23981 1 0.282031 0.279967 0.674757
23982 1 0.310162 0.607797 0.674784
23984 1 0.267968 0.121288 0.649776
23986 1 0.296103 0.449783 0.649791
23987 1 0.282031 0.779967 0.674757
23988 1 0.310162 0.107797 0.674784
23989 1 0.324232 0.277295 0.649823
23990 1 0.352354 0.603612 0.649875
23991 1 0.338287 0.934658 0.67483
23992 1 0.38047 0.928522 0.649951
23993 1 0.366406 0.260421 0.674896
23995 1 0.324232 0.777295 0.649823
23996 1 0.352354 0.103612 0.649875
23997 1 0.338287 0.434658 0.67483
23998 1 0.38047 0.428522 0.649951
23999 1 0.366406 0.760421 0.674896
23994 1 0.394521 0.584996 0.67498
24000 1 0.394521 0.0849964 0.67498
24001 1 0.408583 0.251887 0.650052
24002 1 0.436698 0.573745 0.65017
24003 1 0.422638 0.90842 0.675078
24007 1 0.408583 0.751887 0.650052
24008 1 0.436698 0.0737452 0.65017
24009 1 0.422638 0.40842 0.675078
24019 1 0.49297 0.714466 0.650348
24013 1 0.49297 0.214466 0.650348
24004 1 0.464826 0.894431 0.65028
24005 1 0.450763 0.230892 0.675174