ITEM: TIMESTEP
38
ITEM: NUMBER OF ATOMS
2356
ITEM: BOX BOUNDS ss pp ss
-4.1263466440999998e+01 4.1554841578000001e+01
-4.1208122699999999e-01 4.5329187729999996e+00
-4.1669852686000006e+01 4.1165132866000000e+01
ITEM: ATOMS id type xs ys zs
17356 3 0.295933 0.0916422 0.0491324
17362 3 0.295933 0.591642 0.0491324
16815 3 0.338154 0.0993028 0.0247612
16817 3 0.366301 0.436918 0.0247612
16821 3 0.338154 0.599302 0.0247612
16823 3 0.366301 0.936918 0.0247612
17365 3 0.32408 0.429184 0.0491324
17366 3 0.352228 0.766905 0.0491324
17368 3 0.380375 0.104787 0.0491324
17371 3 0.32408 0.929185 0.0491324
17372 3 0.352228 0.266906 0.0491324
17374 3 0.380375 0.604787 0.0491324
16818 3 0.394448 0.774665 0.0247612
16824 3 0.394448 0.274665 0.0247612
16826 3 0.436669 0.78197 0.00038994
16827 3 0.422595 0.112521 0.0247612
16832 3 0.436669 0.28197 0.00038994
16833 3 0.422595 0.61252 0.0247612
17377 1 0.408644 0.442873 0.049201
17378 1 0.436802 0.782121 0.0494697
17383 1 0.408644 0.942873 0.049201
17384 1 0.436802 0.282121 0.0494697
16828 3 0.464816 0.119718 0.00038994
16829 3 0.450743 0.450458 0.0247612
16830 3 0.47889 0.78845 0.0247612
16834 3 0.464816 0.619717 0.00038994
16835 3 0.450743 0.950458 0.0247612
16836 3 0.47889 0.28845 0.0247612
17380 1 0.464926 0.119703 0.0494937
17386 1 0.464926 0.619703 0.0494937
16837 3 0.492963 0.457498 0.00038994
16843 3 0.492963 0.957498 0.00038994
17389 1 0.492965 0.457473 0.0493809
17395 1 0.492965 0.957473 0.0493809
17895 3 0.169271 0.0683093 0.122246
17901 3 0.169271 0.568309 0.122246
17355 3 0.253713 0.0838244 0.0735036
17361 3 0.253713 0.583824 0.0735036
17896 3 0.211492 0.0759972 0.0978748
17897 3 0.197418 0.405136 0.122246
17898 3 0.225565 0.742223 0.122246
17902 3 0.211492 0.575997 0.0978748
17903 3 0.197418 0.905136 0.122246
17904 3 0.225565 0.242224 0.122246
17905 3 0.239639 0.413135 0.0978748
17907 1 0.25385 0.0804727 0.122479
17911 3 0.239639 0.913135 0.0978748
17913 1 0.25385 0.580473 0.122479
17357 3 0.28186 0.421206 0.0735036
17358 3 0.310007 0.758806 0.0735036
17363 3 0.28186 0.921206 0.0735036
17364 3 0.310007 0.258807 0.0735036
17906 3 0.267786 0.75052 0.0978748
17908 1 0.296062 0.0891258 0.0981218
17909 1 0.282041 0.418198 0.12257
17910 1 0.310139 0.756054 0.122517
17912 3 0.267786 0.250521 0.0978748
17914 1 0.296062 0.589126 0.0981218
17915 1 0.282041 0.918198 0.12257
17916 1 0.310139 0.256054 0.122517
17367 1 0.338235 0.0974025 0.0738118
17369 1 0.366433 0.435171 0.0738413
17373 1 0.338235 0.597402 0.0738118
17375 1 0.366433 0.935171 0.0738413
17917 1 0.324242 0.426965 0.0982367
17918 1 0.352354 0.764957 0.0981528
17919 1 0.338285 0.0943257 0.122523
17920 1 0.380497 0.103311 0.0980878
17921 1 0.366418 0.432697 0.122488
17923 1 0.324242 0.926965 0.0982367
17924 1 0.352354 0.264957 0.0981528
17925 1 0.338285 0.594326 0.122523
17926 1 0.380497 0.603311 0.0980878
17927 1 0.366418 0.932697 0.122488
17370 1 0.394555 0.773214 0.0736737
17376 1 0.394555 0.273214 0.0736737
17379 1 0.422703 0.111913 0.0737777
17385 1 0.422703 0.611913 0.0737777
17922 1 0.394536 0.77129 0.122468
17928 1 0.394536 0.27129 0.122468
17929 1 0.4086 0.441626 0.0980793
17930 1 0.436731 0.780396 0.0981519
17931 1 0.422651 0.110043 0.122487
17935 1 0.4086 0.941626 0.0980793
17936 1 0.436731 0.280396 0.0981519
17937 1 0.422651 0.610043 0.122487
17381 1 0.450831 0.450441 0.0738219
17382 1 0.478933 0.788574 0.0737902
17387 1 0.450831 0.950441 0.0738219
17388 1 0.478933 0.288574 0.0737902
17932 1 0.464862 0.119077 0.0981793
17933 1 0.450781 0.449068 0.122524
17934 1 0.47891 0.788063 0.12254
17938 1 0.464862 0.619077 0.0981793
17939 1 0.450781 0.949068 0.122524
17940 1 0.47891 0.288063 0.12254
17941 1 0.492969 0.457502 0.0981774
17947 1 0.492969 0.957502 0.0981774
18438 3 0.141124 0.726283 0.170988
18444 3 0.141124 0.226283 0.170988
18445 3 0.155198 0.397364 0.146617
18446 3 0.183345 0.734092 0.146617
18447 3 0.169271 0.0628804 0.170988
18451 3 0.155198 0.897364 0.146617
18452 3 0.183345 0.234092 0.146617
18453 3 0.169271 0.56288 0.170988
18448 1 0.211701 0.071679 0.146831
18449 1 0.19762 0.400127 0.171255
18450 1 0.225703 0.737547 0.171209
18454 1 0.211701 0.571679 0.146831
18455 1 0.19762 0.900127 0.171255
18456 1 0.225703 0.237547 0.171209
18457 1 0.239849 0.40916 0.146925
18459 1 0.253841 0.0753029 0.171216
18463 1 0.239849 0.90916 0.146925
18465 1 0.253841 0.575303 0.171216
18458 1 0.267932 0.746822 0.14686
18460 1 0.296065 0.0848745 0.14687
18461 1 0.281969 0.413158 0.171204
18462 1 0.310105 0.751453 0.171202
18464 1 0.267932 0.246822 0.14686
18466 1 0.296065 0.584874 0.14687
18467 1 0.281969 0.913158 0.171204
18468 1 0.310105 0.251453 0.171202
18469 1 0.324197 0.423055 0.146862
18470 1 0.352334 0.761648 0.146852
18471 1 0.338242 0.0900585 0.171199
18472 1 0.380462 0.100417 0.14684
18473 1 0.366379 0.429021 0.171201
18475 1 0.324197 0.923055 0.146862
18476 1 0.352334 0.261648 0.146852
18477 1 0.338242 0.590059 0.171199
18478 1 0.380462 0.600417 0.14684
18479 1 0.366379 0.929021 0.171201
18474 1 0.39451 0.768273 0.171209
18480 1 0.39451 0.268273 0.171209
18481 1 0.408584 0.439405 0.146849
18482 1 0.43671 0.778646 0.146873
18483 1 0.42264 0.107813 0.171227
18487 1 0.408584 0.939405 0.146849
18488 1 0.43671 0.278646 0.146873
18489 1 0.42264 0.607813 0.171227
18484 1 0.464842 0.118082 0.146896
18485 1 0.450773 0.447618 0.171248
18486 1 0.47891 0.787591 0.171261
18490 1 0.464842 0.618082 0.146896
18491 1 0.450773 0.947618 0.171248
18492 1 0.47891 0.287591 0.171261
18493 1 0.492975 0.457553 0.146903
18499 1 0.492975 0.957553 0.146903
18986 3 0.0989034 0.718916 0.19536
18987 3 0.0848298 0.0478182 0.219731
18988 3 0.127051 0.0550862 0.19536
18989 3 0.112977 0.383799 0.219731
18992 3 0.0989034 0.218917 0.19536
18993 3 0.0848298 0.547818 0.219731
18994 3 0.127051 0.555086 0.19536
18995 3 0.112977 0.8838 0.219731
19537 3 0.0707563 0.376681 0.244102
19538 3 0.0989034 0.712453 0.244102
19540 1 0.127263 0.0487992 0.244361
19543 3 0.0707563 0.876681 0.244102
19544 3 0.0989034 0.212454 0.244102
19546 1 0.127263 0.548799 0.244361
18990 1 0.141311 0.720831 0.219988
18996 1 0.141311 0.220831 0.219988
18997 1 0.155163 0.391191 0.195478
18998 1 0.183395 0.728449 0.195511
18999 1 0.169385 0.0569823 0.219917
19003 1 0.155163 0.891191 0.195478
19004 1 0.183395 0.228449 0.195511
19005 1 0.169385 0.556982 0.219917
19549 1 0.15534 0.385346 0.244289
19550 1 0.183434 0.721849 0.244224
19555 1 0.15534 0.885346 0.244289
19556 1 0.183434 0.221849 0.244224
19000 1 0.211553 0.0658548 0.195533
19001 1 0.197466 0.393749 0.219846
19002 1 0.22561 0.731169 0.219855
19006 1 0.211553 0.565855 0.195533
19007 1 0.197466 0.893749 0.219846
19008 1 0.22561 0.231169 0.219855
19009 1 0.239716 0.403354 0.195538
19011 1 0.253752 0.0688638 0.219857
19015 1 0.239716 0.903354 0.195538
19017 1 0.253752 0.568864 0.219857
19552 1 0.211535 0.0587722 0.244188
19558 1 0.211535 0.558772 0.244188
19561 1 0.23966 0.396233 0.244184
19567 1 0.23966 0.896233 0.244184
19010 1 0.267861 0.741223 0.195536
19012 1 0.296002 0.0794004 0.195533
19013 1 0.281897 0.406967 0.219862
19014 1 0.310041 0.745532 0.219867
19016 1 0.267861 0.241223 0.195536
19018 1 0.296002 0.5794 0.195533
19019 1 0.281897 0.906967 0.219862
19020 1 0.310041 0.245532 0.219867
19562 1 0.267796 0.734164 0.244187
19564 1 0.295936 0.0726006 0.244192
19568 1 0.267796 0.234164 0.244187
19570 1 0.295936 0.572601 0.244192
19021 1 0.324145 0.418024 0.195538
19022 1 0.352286 0.757083 0.195545
19023 1 0.338186 0.0846098 0.219877
19024 1 0.380425 0.096556 0.195557
19025 1 0.366331 0.424213 0.219894
19027 1 0.324145 0.918024 0.195538
19028 1 0.352286 0.257083 0.195545
19029 1 0.338186 0.58461 0.219877
19030 1 0.380425 0.596556 0.195557
19031 1 0.366331 0.924213 0.219894
19573 1 0.32408 0.411603 0.244202
19574 1 0.352227 0.751227 0.244219
19576 1 0.380376 0.0914982 0.244243
19579 1 0.32408 0.911603 0.244202
19580 1 0.352227 0.251227 0.244219
19582 1 0.380376 0.591498 0.244243
19026 1 0.394475 0.764322 0.219915
19032 1 0.394475 0.264322 0.219915
19033 1 0.408563 0.436402 0.195576
19034 1 0.4367 0.776599 0.195597
19035 1 0.422619 0.104897 0.21994
19039 1 0.408563 0.936402 0.195576
19040 1 0.4367 0.276599 0.195597
19041 1 0.422619 0.604897 0.21994
19585 1 0.408527 0.432392 0.244273
19586 1 0.43668 0.773836 0.244301
19591 1 0.408527 0.932392 0.244273
19592 1 0.43668 0.273836 0.244301
19036 1 0.46484 0.117058 0.195614
19037 1 0.450764 0.445856 0.219962
19038 1 0.478911 0.787072 0.219974
19042 1 0.46484 0.617058 0.195614
19043 1 0.450764 0.945856 0.219962
19044 1 0.478911 0.287072 0.219974
19588 1 0.464832 0.115692 0.244322
19594 1 0.464832 0.615693 0.244322
19045 1 0.492982 0.457663 0.195619
19051 1 0.492982 0.957663 0.195619
19597 1 0.492985 0.457781 0.244328
19603 1 0.492985 0.957781 0.244328
19530 3 0.0566827 0.705533 0.268473
19536 3 0.0566827 0.205534 0.268473
20080 3 0.0426091 0.0344036 0.292845
20086 3 0.0426091 0.534403 0.292845
19539 3 0.0848298 0.0410782 0.268473
19541 1 0.113126 0.376934 0.268592
19545 3 0.0848298 0.541078 0.268473
19547 1 0.113126 0.876934 0.268592
20089 3 0.0707563 0.369706 0.292845
20090 1 0.0990793 0.705216 0.292917
20092 1 0.127162 0.0410758 0.292913
20095 3 0.0707563 0.869707 0.292845
20096 1 0.0990794 0.205216 0.292917
20098 1 0.127162 0.541076 0.292913
19542 1 0.14124 0.71333 0.268613
19548 1 0.14124 0.21333 0.268613
19551 1 0.169368 0.0497456 0.268591
19557 1 0.169368 0.549746 0.268591
20101 1 0.155289 0.377366 0.292926
20102 1 0.1834 0.713847 0.292905
20107 1 0.155289 0.877366 0.292926
20108 1 0.1834 0.213847 0.292905
19553 1 0.197471 0.386399 0.268549
19554 1 0.225582 0.723476 0.268526
19559 1 0.197471 0.886399 0.268549
19560 1 0.225582 0.223476 0.268526
19563 1 0.253703 0.0611072 0.268519
19569 1 0.253703 0.561107 0.268519
20104 1 0.211508 0.0506308 0.292881
20110 1 0.211508 0.550631 0.292881
20113 1 0.239618 0.387892 0.292863
20119 1 0.239618 0.887892 0.292863
19565 1 0.281833 0.399294 0.268518
19566 1 0.309971 0.738106 0.268524
19571 1 0.281833 0.899294 0.268518
19572 1 0.309971 0.238106 0.268524
20114 1 0.267736 0.725722 0.292853
20116 1 0.295864 0.0642089 0.292851
20120 1 0.267736 0.225722 0.292853
20122 1 0.295864 0.564209 0.292851
19575 1 0.338116 0.0776179 0.268538
20134 1 0.380305 0.584639 0.292903
19577 1 0.366267 0.417902 0.268562
20132 1 0.352149 0.243561 0.292874
19581 1 0.338116 0.577618 0.268538
20131 1 0.324002 0.903449 0.292857
19583 1 0.366267 0.917902 0.268562
20128 1 0.380305 0.0846386 0.292903
20126 1 0.352149 0.743561 0.292874
20125 1 0.324002 0.403449 0.292857
20144 1 0.43664 0.269798 0.292981
20143 1 0.40847 0.926736 0.292941
20138 1 0.43664 0.769798 0.292981
20137 1 0.40847 0.426736 0.292941
19578 1 0.394423 0.758986 0.268593
19584 1 0.394423 0.258986 0.268593
19587 1 0.422582 0.100842 0.268628
19593 1 0.422582 0.600841 0.268628
20146 1 0.464812 0.613613 0.293012
20140 1 0.464812 0.113612 0.293012
19589 1 0.450743 0.443338 0.268659
19590 1 0.478905 0.786273 0.268676
19595 1 0.450743 0.943338 0.268659
19596 1 0.478905 0.286273 0.268676
20149 1 0.492985 0.457861 0.293021
20155 1 0.492985 0.957861 0.293021
20640 1 0.0567663 0.190996 0.36587
20639 3 0.0285356 0.855936 0.365958
20638 3 0.0426091 0.527106 0.341587
20634 1 0.0567663 0.690996 0.36587
20633 3 0.0285356 0.355935 0.365958
20632 3 0.0426091 0.0271063 0.341587
20081 3 0.0285356 0.363318 0.317216
20082 3 0.0566827 0.698372 0.317216
20087 3 0.0285356 0.863319 0.317216
20088 3 0.0566827 0.198373 0.317216
20651 1 0.113124 0.860335 0.36598
20650 1 0.127197 0.532426 0.341617
20649 1 0.0850453 0.525195 0.365967
20648 1 0.0991338 0.196816 0.341622
20647 1 0.0710706 0.861339 0.341622
20645 1 0.113124 0.360335 0.36598
20644 1 0.127197 0.0324262 0.341617
20643 1 0.0850453 0.0251947 0.365967
20642 1 0.0991338 0.696816 0.341622
20641 1 0.0710706 0.361339 0.341622
20091 1 0.0851584 0.0333561 0.317273
20093 1 0.113153 0.368822 0.317252
20097 1 0.0851584 0.533356 0.317273
20099 1 0.113153 0.868822 0.317252
20661 1 0.169306 0.531621 0.36596
20660 1 0.183368 0.204598 0.341597
20659 1 0.155274 0.868353 0.34161
20655 1 0.169306 0.0316214 0.36596
20654 1 0.183368 0.704598 0.341597
20653 1 0.155274 0.368353 0.34161
20652 1 0.141212 0.195811 0.365972
20646 1 0.141212 0.695811 0.365972
20094 1 0.141237 0.704799 0.31726
20100 1 0.141237 0.204799 0.31726
20103 1 0.169332 0.041097 0.317255
20109 1 0.169332 0.541097 0.317255
20673 1 0.253592 0.541211 0.365895
20671 1 0.239566 0.878124 0.341554
20667 1 0.253592 0.0412106 0.365895
20665 1 0.239566 0.378124 0.341554
20664 1 0.225495 0.204231 0.365919
20663 1 0.1974 0.867741 0.365941
20662 1 0.211465 0.541148 0.341577
20658 1 0.225495 0.704231 0.365919
20657 1 0.1974 0.367741 0.365941
20656 1 0.211465 0.0411478 0.341577
20105 1 0.197435 0.377645 0.317238
20106 1 0.225538 0.714561 0.317216
20111 1 0.197435 0.877645 0.317238
20112 1 0.225538 0.214561 0.317216
20115 1 0.253647 0.0519757 0.317198
20121 1 0.253647 0.551976 0.317198
20676 1 0.309801 0.217252 0.365851
20675 1 0.281692 0.878822 0.365871
20674 1 0.295783 0.553915 0.341519
20672 1 0.26767 0.21566 0.341534
20670 1 0.309801 0.717252 0.365851
20669 1 0.281692 0.378822 0.365871
20668 1 0.295783 0.0539145 0.341519
20666 1 0.26767 0.71566 0.341534
20117 1 0.281762 0.390023 0.317186
20118 1 0.309889 0.728837 0.317182
20123 1 0.281762 0.890023 0.317186
20124 1 0.309889 0.228837 0.317182
20687 1 0.366059 0.897633 0.365841
20686 1 0.380203 0.575016 0.341538
20685 1 0.337921 0.556747 0.365839
20684 1 0.352046 0.233345 0.341516
20683 1 0.323907 0.893071 0.341511
20681 1 0.366059 0.397633 0.365841
20680 1 0.380203 0.0750155 0.341538
20679 1 0.337921 0.0567467 0.365839
20678 1 0.352046 0.733345 0.341516
20677 1 0.323907 0.393071 0.341511
20135 1 0.366178 0.909382 0.317208
20133 1 0.338027 0.568567 0.317188
20129 1 0.366178 0.409382 0.317208
20127 1 0.338027 0.068567 0.317188
20697 1 0.422412 0.585399 0.365904
20696 1 0.436572 0.263505 0.341627
20695 1 0.408378 0.918361 0.341577
20691 1 0.422412 0.0853994 0.365904
20690 1 0.436572 0.763505 0.341627
20689 1 0.408378 0.418361 0.341577
20688 1 0.394221 0.24036 0.365862
20682 1 0.394221 0.74036 0.365862
20145 1 0.422519 0.594852 0.317287
20139 1 0.422519 0.0948525 0.317287
20136 1 0.394343 0.25145 0.317242
20130 1 0.394343 0.75145 0.317242
20700 1 0.478864 0.282759 0.366
20699 1 0.45063 0.93302 0.36596
20698 1 0.464776 0.610258 0.341671
20694 1 0.478864 0.782759 0.366
20693 1 0.45063 0.43302 0.36596
20692 1 0.464776 0.110258 0.341671
20148 1 0.478891 0.284992 0.317356
20147 1 0.450703 0.939478 0.31733
20142 1 0.478891 0.784993 0.317356
20141 1 0.450703 0.439478 0.31733
20707 1 0.492984 0.957979 0.341687
20701 1 0.492984 0.457978 0.341687
21742 1 0.0428979 0.510568 0.439147
21740 3 0.014462 0.177132 0.439072
21736 1 0.0428979 0.0105684 0.439147
21734 3 0.014462 0.677131 0.439072
21192 1 0.057013 0.182087 0.414743
21191 3 0.0285356 0.848131 0.414701
21190 3 0.0426091 0.519303 0.390329
21189 3 0.00038843 0.513979 0.414701
21188 3 0.014462 0.184887 0.390329
21186 1 0.057013 0.682087 0.414743
21185 3 0.0285356 0.348131 0.414701
21184 3 0.0426091 0.0193032 0.390329
21183 3 0.00038843 0.0139791 0.414701
21182 3 0.014462 0.684886 0.390329
21754 1 0.127174 0.513442 0.439048
21752 1 0.0990933 0.178921 0.439054
21751 1 0.0710139 0.844707 0.439083
21748 1 0.127174 0.0134416 0.439048
21746 1 0.0990933 0.678921 0.439054
21745 1 0.0710139 0.344707 0.439083
21203 1 0.113102 0.851074 0.414682
21202 1 0.127143 0.52345 0.39033
21201 1 0.0850078 0.516365 0.414671
21200 1 0.099024 0.188448 0.390318
21199 1 0.070911 0.85374 0.390299
21197 1 0.113102 0.351074 0.414682
21196 1 0.127143 0.0234502 0.39033
21195 1 0.0850078 0.0163646 0.414671
21194 1 0.099024 0.688448 0.390318
21193 1 0.070911 0.35374 0.390299
21764 1 0.183363 0.183096 0.439034
21763 1 0.155269 0.848183 0.439044
21758 1 0.183363 0.683096 0.439034
21757 1 0.155269 0.348183 0.439044
21213 1 0.1693 0.521219 0.414676
21212 1 0.183345 0.194421 0.390309
21211 1 0.155247 0.858787 0.390323
21207 1 0.1693 0.0212192 0.414676
21206 1 0.183345 0.694421 0.390309
21205 1 0.155247 0.358787 0.390323
21204 1 0.141201 0.186047 0.414683
21198 1 0.141201 0.686047 0.414683
21775 1 0.239541 0.853664 0.438995
21769 1 0.239541 0.353664 0.438995
21766 1 0.211454 0.518232 0.439017
21760 1 0.211454 0.0182315 0.439017
21225 1 0.253571 0.52858 0.414613
21223 1 0.239529 0.86676 0.390264
21219 1 0.253571 0.0285802 0.414613
21217 1 0.239529 0.36676 0.390264
21216 1 0.225484 0.192408 0.414639
21215 1 0.197394 0.856653 0.414661
21214 1 0.211438 0.530387 0.390289
21210 1 0.225484 0.692408 0.414639
21209 1 0.197394 0.356653 0.414661
21208 1 0.211438 0.0303869 0.390289
21778 1 0.295705 0.525883 0.438938
21776 1 0.267625 0.189495 0.438968
21772 1 0.295705 0.0258826 0.438938
21770 1 0.267625 0.689495 0.438968
21228 1 0.309743 0.202803 0.414553
21227 1 0.281657 0.86531 0.414584
21226 1 0.295715 0.541281 0.39021
21224 1 0.267621 0.20367 0.390237
21222 1 0.309743 0.702803 0.414553
21221 1 0.281657 0.36531 0.414584
21220 1 0.295715 0.041281 0.39021
21218 1 0.267621 0.70367 0.390237
21790 1 0.37994 0.541425 0.438826
21788 1 0.351859 0.201386 0.438866
21787 1 0.323782 0.863064 0.438904
21784 1 0.37994 0.0414244 0.438826
21782 1 0.351859 0.701385 0.438866
21781 1 0.323782 0.363064 0.438904
21239 1 0.365934 0.881381 0.414494
21238 1 0.380063 0.561192 0.39016
21237 1 0.337833 0.541348 0.414522
21236 1 0.351929 0.219633 0.390166
21235 1 0.323816 0.879825 0.390185
21233 1 0.365934 0.381382 0.414494
21232 1 0.380063 0.0611915 0.39016
21231 1 0.337833 0.0413485 0.414522
21230 1 0.351929 0.719633 0.390166
21229 1 0.323816 0.379825 0.390185
21800 1 0.43619 0.231992 0.438739
21799 1 0.40804 0.884178 0.438785
21794 1 0.43619 0.731992 0.438739
21793 1 0.40804 0.384177 0.438785
21249 1 0.422226 0.56929 0.414472
21248 1 0.436444 0.252675 0.390219
21247 1 0.408231 0.905221 0.390175
21243 1 0.422226 0.069291 0.414472
21242 1 0.436444 0.752675 0.390219
21241 1 0.408231 0.40522 0.390175
21240 1 0.394058 0.223614 0.414474
21234 1 0.394058 0.723615 0.414474
21802 1 0.464505 0.589687 0.438778
21796 1 0.464505 0.0896858 0.438778
21252 1 0.478805 0.278016 0.414581
21251 1 0.450473 0.920483 0.414513
21250 1 0.464703 0.604054 0.39028
21246 1 0.478805 0.778017 0.414581
21245 1 0.450473 0.420484 0.414513
21244 1 0.464703 0.104053 0.39028
21811 1 0.492979 0.958217 0.438864
21805 1 0.492979 0.458215 0.438864
21259 1 0.492982 0.958103 0.390306
21253 1 0.492982 0.458103 0.390306
21744 1 0.0570534 0.173126 0.463471
21743 3 0.0285356 0.840029 0.463443
21741 3 0.00038843 0.506318 0.463443
21738 1 0.0570534 0.673126 0.463471
21737 3 0.0285356 0.340028 0.463443
21735 3 0.00038843 0.00631874 0.463443
22286 3 0.014462 0.669172 0.487814
22288 1 0.0428784 0.00183465 0.487814
22292 3 0.014462 0.169173 0.487814
22294 1 0.0428784 0.501835 0.487814
21755 1 0.113163 0.84111 0.463426
21753 1 0.0850891 0.50701 0.463443
21749 1 0.113163 0.34111 0.463426
21747 1 0.0850891 0.0070096 0.463443
22297 1 0.07104 0.335554 0.487816
22298 1 0.0991397 0.669207 0.487807
22300 1 0.127226 0.00299971 0.487795
22303 1 0.07104 0.835554 0.487816
22304 1 0.0991397 0.169207 0.487807
22306 1 0.127226 0.503 0.487795
21765 1 0.169341 0.509812 0.463408
21759 1 0.169341 0.00981223 0.463408
21756 1 0.141249 0.175403 0.463417
21750 1 0.141249 0.675403 0.463417
22309 1 0.155322 0.336912 0.487784
22310 1 0.183419 0.67088 0.487772
22315 1 0.155322 0.836912 0.487784
22316 1 0.183419 0.17088 0.487772
21777 1 0.253614 0.514003 0.463355
21771 1 0.253614 0.0140027 0.463355
21768 1 0.225526 0.179058 0.463377
21767 1 0.197434 0.844349 0.463394
21762 1 0.225526 0.679058 0.463377
21761 1 0.197434 0.344349 0.463394
22312 1 0.211517 0.00490898 0.487757
22318 1 0.211517 0.504909 0.487757
22321 1 0.239613 0.33902 0.487739
22327 1 0.239613 0.83902 0.487739
21780 1 0.309775 0.185064 0.463299
21779 1 0.281697 0.849287 0.463329
21774 1 0.309775 0.685064 0.463299
21773 1 0.281697 0.349287 0.463329
22322 1 0.267705 0.673257 0.487719
22324 1 0.295793 0.00768712 0.487697
22328 1 0.267705 0.173257 0.487719
22330 1 0.295793 0.507687 0.487697
21791 1 0.365903 0.859236 0.463226
21789 1 0.337843 0.521578 0.463266
21785 1 0.365903 0.359236 0.463226
21783 1 0.337843 0.0215781 0.463266
22333 1 0.323872 0.342415 0.487672
22334 1 0.351939 0.677637 0.487645
22336 1 0.379985 0.0136605 0.487613
22339 1 0.323872 0.842415 0.487672
22340 1 0.351939 0.177636 0.487645
22342 1 0.379985 0.513661 0.487613
21801 1 0.422 0.541521 0.463103
21795 1 0.422 0.041521 0.463103
21792 1 0.393954 0.198766 0.463175
21786 1 0.393954 0.698767 0.463175
22345 1 0.40799 0.351057 0.487569
22346 1 0.435955 0.691087 0.487503
22351 1 0.40799 0.851057 0.487569
22352 1 0.435955 0.191088 0.487503
21804 1 0.478605 0.262653 0.463057
21803 1 0.450116 0.892049 0.462983
21798 1 0.478604 0.762654 0.463057
21797 1 0.450116 0.39205 0.462983
22348 1 0.464008 0.0415986 0.487348
22354 1 0.464008 0.541599 0.487348
22357 1 0.492976 0.458348 0.487398
22363 1 0.492976 0.958349 0.487398
22287 3 0.00038843 0.99854 0.512186
22289 3 0.0285356 0.331785 0.512186
22290 1 0.0570623 0.664267 0.512164
22293 3 0.00038843 0.498539 0.512186
22295 3 0.0285356 0.831785 0.512186
22296 1 0.0570623 0.164267 0.512164
22838 3 0.014462 0.661162 0.536557
22839 3 0.00038843 0.990788 0.560928
22840 1 0.0429085 0.993477 0.536492
22841 3 0.0285356 0.323574 0.560928
22842 1 0.0570127 0.655846 0.560927
22844 3 0.014462 0.161163 0.536557
22845 3 0.00038843 0.490788 0.560928
22846 1 0.0429085 0.493477 0.536492
22847 3 0.0285356 0.823575 0.560928
22848 1 0.0570127 0.155846 0.560927
22299 1 0.0851081 0.997546 0.512181
22301 1 0.113198 0.330993 0.512174
22305 1 0.0851081 0.497546 0.512181
22307 1 0.113198 0.830993 0.512174
22849 1 0.071036 0.326461 0.536556
22850 1 0.0991501 0.659481 0.536548
22851 1 0.0850827 0.988375 0.560921
22852 1 0.127257 0.992513 0.536535
22853 1 0.11321 0.321039 0.560903
22855 1 0.071036 0.826461 0.536556
22856 1 0.0991501 0.159481 0.536548
22857 1 0.0850827 0.488375 0.560921
22858 1 0.127257 0.492513 0.536535
22859 1 0.11321 0.821039 0.560903
22302 1 0.141297 0.664467 0.512161
22308 1 0.141297 0.164467 0.512161
22311 1 0.1694 0.997915 0.512148
22317 1 0.1694 0.497915 0.512148
22854 1 0.141331 0.653633 0.560892
22860 1 0.141331 0.153633 0.560892
22861 1 0.155371 0.325501 0.536522
22862 1 0.183484 0.658382 0.536509
22863 1 0.169452 0.986074 0.560881
22867 1 0.155371 0.825501 0.536522
22868 1 0.183484 0.158382 0.536509
22869 1 0.169452 0.486074 0.560881
22313 1 0.197505 0.331331 0.512134
22314 1 0.22561 0.6647 0.51212
22319 1 0.197505 0.831331 0.512134
22320 1 0.22561 0.1647 0.51212
22323 1 0.253714 0.998014 0.512104
22329 1 0.253714 0.498014 0.512104
22864 1 0.211598 0.991125 0.536496
22865 1 0.197574 0.318319 0.560869
22866 1 0.225696 0.650289 0.560857
22870 1 0.211598 0.491125 0.536496
22871 1 0.197574 0.818319 0.560869
22872 1 0.225696 0.150289 0.560857
22873 1 0.239713 0.323682 0.536483
22875 1 0.25382 0.981903 0.560846
22879 1 0.239713 0.823682 0.536483
22881 1 0.25382 0.481903 0.560846
22325 1 0.281816 0.331265 0.512088
22326 1 0.309913 0.664427 0.512071
22331 1 0.281816 0.831265 0.512088
22332 1 0.309913 0.164427 0.512071
22874 1 0.267827 0.655991 0.53647
22876 1 0.295941 0.987946 0.53646
22877 1 0.281944 0.313019 0.560839
22878 1 0.310069 0.643427 0.560839
22880 1 0.267827 0.155991 0.53647
22882 1 0.295941 0.487946 0.53646
22883 1 0.281944 0.813019 0.560839
22884 1 0.310069 0.143427 0.560839
22335 1 0.338004 0.997473 0.512058
22337 1 0.366084 0.330295 0.512049
22341 1 0.338004 0.497473 0.512058
22343 1 0.366084 0.830294 0.512049
22885 1 0.324052 0.319383 0.536455
22886 1 0.352161 0.649968 0.53646
22887 1 0.338192 0.972749 0.560851
22888 1 0.380266 0.979046 0.536482
22889 1 0.366312 0.30036 0.560882
22891 1 0.324052 0.819382 0.536455
22892 1 0.352161 0.149969 0.53646
22893 1 0.338192 0.472749 0.560851
22894 1 0.380266 0.479046 0.536482
22895 1 0.366312 0.80036 0.560883
22338 1 0.394144 0.662588 0.512047
22344 1 0.394145 0.162588 0.512047
22347 1 0.422181 0.993483 0.512063
22353 1 0.422181 0.493482 0.512062
22890 1 0.394428 0.625132 0.560951
22896 1 0.394428 0.125132 0.560951
22897 1 0.408369 0.305193 0.536541
22898 1 0.436493 0.625098 0.53667
22899 1 0.422543 0.945039 0.561085
22903 1 0.408369 0.805193 0.536541
22904 1 0.436493 0.125097 0.53667
22905 1 0.422543 0.445039 0.561085
22349 1 0.450264 0.320609 0.51213
22350 1 0.478536 0.625056 0.5124
22355 1 0.450264 0.82061 0.51213
22356 1 0.478536 0.125056 0.5124
22900 1 0.464634 0.92955 0.537016
22901 1 0.450651 0.256717 0.561366
22902 1 0.478811 0.55908 0.561719
22906 1 0.464635 0.429552 0.537016
22907 1 0.450651 0.756717 0.561366
22908 1 0.478811 0.0590784 0.56172
22909 1 0.492972 0.208537 0.537507
22915 1 0.492972 0.708534 0.537507
23390 3 0.014462 0.653262 0.585299
23392 1 0.0426778 0.986307 0.585356
23393 3 0.0285356 0.315566 0.609671
23394 1 0.0570278 0.64687 0.60962
23396 3 0.014462 0.153263 0.585299
23398 1 0.0426778 0.486307 0.585356
23399 3 0.0285356 0.815567 0.609671
23400 1 0.0570278 0.14687 0.60962
23401 1 0.0710383 0.317787 0.58528
23402 1 0.0991641 0.650018 0.585265
23403 1 0.0851369 0.979258 0.609628
23404 1 0.127285 0.98225 0.58526
23405 1 0.113243 0.311339 0.609627
23407 1 0.0710383 0.817787 0.58528
23408 1 0.0991641 0.150018 0.585265
23409 1 0.0851369 0.479258 0.609628
23410 1 0.127285 0.48225 0.58526
23411 1 0.113243 0.811339 0.609627
23406 1 0.141354 0.643204 0.609621
23412 1 0.141354 0.143204 0.609621
23413 1 0.155409 0.314364 0.58525
23414 1 0.183535 0.646235 0.585239
23415 1 0.169481 0.974821 0.609609
23419 1 0.155409 0.814364 0.58525
23420 1 0.183535 0.146235 0.585239
23421 1 0.169481 0.474821 0.609609
23416 1 0.211663 0.977786 0.585227
23417 1 0.197613 0.306083 0.609597
23418 1 0.225747 0.636909 0.609586
23422 1 0.211663 0.477786 0.585227
23423 1 0.197613 0.806083 0.609597
23424 1 0.225747 0.136909 0.609586
23425 1 0.239793 0.30892 0.585218
23427 1 0.253882 0.96717 0.609581
23431 1 0.239793 0.80892 0.585218
23433 1 0.253882 0.46717 0.609581
23426 1 0.267924 0.639499 0.585212
23428 1 0.296055 0.969314 0.585214
23429 1 0.282017 0.296683 0.609583
23430 1 0.310149 0.625192 0.609598
23432 1 0.267924 0.139499 0.585212
23434 1 0.296055 0.469314 0.585214
23435 1 0.282017 0.796683 0.609583
23436 1 0.310149 0.125192 0.609598
23437 1 0.324184 0.298037 0.585228
23438 1 0.35231 0.625164 0.585263
23439 1 0.338276 0.952321 0.609632
23440 1 0.380429 0.949935 0.58533
23441 1 0.366396 0.277579 0.609693
23443 1 0.324184 0.798037 0.585228
23444 1 0.35231 0.125164 0.585263
23445 1 0.338276 0.452321 0.609632
23446 1 0.380429 0.449935 0.58533
23447 1 0.366396 0.777579 0.609693
23442 1 0.394508 0.600329 0.609793
23448 1 0.394508 0.100329 0.609793
23449 1 0.408542 0.271219 0.585448
23450 1 0.436647 0.587647 0.585649
23451 1 0.422614 0.919975 0.609945
23455 1 0.408542 0.771219 0.585448
23456 1 0.436647 0.0876479 0.585649
23457 1 0.422614 0.419975 0.609945
23452 1 0.464772 0.899149 0.585901
23453 1 0.450731 0.236578 0.610127
23454 1 0.478883 0.551439 0.610251
23458 1 0.464772 0.399147 0.585901
23459 1 0.450731 0.736577 0.610127
23460 1 0.478883 0.0514402 0.610251
23461 1 0.492969 0.208648 0.586004
23467 1 0.492969 0.708652 0.586003
23942 3 0.014462 0.64562 0.634042
23944 3 0.0426091 0.977718 0.634042
23945 3 0.0285356 0.307908 0.658413
23946 3 0.0566827 0.639738 0.658413
23948 3 0.014462 0.14562 0.634042
23950 3 0.0426091 0.477718 0.634042
23951 3 0.0285356 0.807908 0.658413
23952 3 0.0566827 0.139739 0.658413
24496 3 0.0426091 0.970095 0.682784
24502 3 0.0426091 0.470094 0.682784
23953 1 0.0711218 0.309225 0.633979
23954 1 0.0991627 0.640967 0.634001
23955 1 0.0850545 0.971339 0.65834
23956 1 0.127285 0.972627 0.633991
23957 1 0.113178 0.30266 0.658358
23959 1 0.0711218 0.809225 0.633979
23960 1 0.0991627 0.140967 0.634001
23961 1 0.0850545 0.471339 0.65834
23962 1 0.127285 0.472627 0.633991
23963 1 0.113178 0.80266 0.658358
24505 1 0.0707992 0.30163 0.68277
24506 1 0.099116 0.632957 0.68269
24508 1 0.127231 0.964017 0.682709
24511 1 0.0707992 0.80163 0.68277
24512 1 0.099116 0.132957 0.68269
24514 1 0.127231 0.464017 0.682709
23958 1 0.141326 0.633814 0.658346
23964 1 0.141326 0.133814 0.658346
23965 1 0.155411 0.304031 0.63398
23966 1 0.183547 0.635089 0.633965
23967 1 0.169468 0.964703 0.658333
23971 1 0.155411 0.804031 0.63398
23972 1 0.183547 0.135089 0.633965
23973 1 0.169468 0.464703 0.658333
24517 1 0.155382 0.294809 0.682696
24518 1 0.183527 0.625271 0.682683
24523 1 0.155382 0.794809 0.682696
24524 1 0.183527 0.125271 0.682683
23968 1 0.211686 0.965722 0.633953
23969 1 0.197612 0.295217 0.658318
23970 1 0.225754 0.625243 0.65831
23974 1 0.211686 0.465722 0.633953
23975 1 0.197612 0.795217 0.658318
23976 1 0.225754 0.125243 0.65831
23977 1 0.239824 0.295816 0.633947
23979 1 0.253894 0.95464 0.658311
23983 1 0.239824 0.795816 0.633947
23985 1 0.253894 0.45464 0.658311
24520 1 0.211675 0.955299 0.682672
24526 1 0.211675 0.455299 0.682672
24529 1 0.239818 0.284765 0.68267
24535 1 0.239818 0.784765 0.68267
23978 1 0.267962 0.625214 0.633948
23980 1 0.296096 0.953721 0.633962
23981 1 0.28203 0.283258 0.658323
23982 1 0.310159 0.610903 0.658351
23984 1 0.267962 0.125214 0.633948
23986 1 0.296096 0.453721 0.633962
23987 1 0.28203 0.783258 0.658323
23988 1 0.310159 0.110903 0.658351
24530 1 0.267956 0.613549 0.68268
24532 1 0.296088 0.941509 0.682704
24536 1 0.267956 0.113549 0.68268
24538 1 0.296088 0.441509 0.682704
23989 1 0.324224 0.281066 0.633994
23990 1 0.352345 0.606929 0.634049
23991 1 0.338282 0.937359 0.658399
23992 1 0.380458 0.930947 0.634133
23993 1 0.366398 0.262408 0.658471
23995 1 0.324224 0.781066 0.633994
23996 1 0.352345 0.106929 0.634049
23997 1 0.338282 0.437359 0.658399
23998 1 0.380458 0.430947 0.634133
23999 1 0.366398 0.762408 0.658471
24541 1 0.324213 0.268499 0.682745
24542 1 0.352332 0.594387 0.682807
24544 1 0.380447 0.919089 0.682887
24547 1 0.324213 0.768499 0.682745
24548 1 0.352332 0.0943871 0.682807
24550 1 0.380447 0.419089 0.682887
23994 1 0.39451 0.585903 0.658568