ITEM: TIMESTEP
43
ITEM: NUMBER OF ATOMS
2350
ITEM: BOX BOUNDS ss pp ss
-4.1263466440999998e+01 4.1554841578000001e+01
-4.1208122699999999e-01 4.5329187729999996e+00
-4.0912806488000001e+01 4.1922179064000005e+01
ITEM: ATOMS id type xs ys zs
16806 3 0.310007 0.761309 0.0247612
16812 3 0.310007 0.261309 0.0247612
17354 3 0.267786 0.753631 0.0491324
17356 3 0.295933 0.0910364 0.0491324
17360 3 0.267786 0.253632 0.0491324
17362 3 0.295933 0.591036 0.0491324
16815 3 0.338154 0.0988372 0.0247612
16817 3 0.366301 0.436521 0.0247612
16821 3 0.338154 0.598837 0.0247612
16823 3 0.366301 0.936522 0.0247612
17365 3 0.32408 0.428639 0.0491324
17366 3 0.352228 0.76643 0.0491324
17368 1 0.380503 0.104501 0.0491947
17371 3 0.32408 0.928639 0.0491324
17372 3 0.352228 0.26643 0.0491324
17374 1 0.380503 0.604501 0.0491947
16818 3 0.394448 0.774344 0.0247612
16824 3 0.394448 0.274344 0.0247612
16825 3 0.408522 0.444026 0.00038994
16826 3 0.436669 0.781792 0.00038994
16827 3 0.422595 0.112282 0.0247612
16831 3 0.408522 0.944026 0.00038994
16832 3 0.436669 0.281792 0.00038994
16833 3 0.422595 0.612281 0.0247612
17377 1 0.408667 0.443725 0.0494616
17378 1 0.436803 0.781331 0.0494803
17383 1 0.408667 0.943725 0.0494616
17384 1 0.436803 0.281331 0.0494803
16828 3 0.464816 0.11962 0.00038994
16829 3 0.450743 0.450305 0.0247612
16830 3 0.47889 0.788387 0.0247612
16834 3 0.464816 0.61962 0.00038994
16835 3 0.450743 0.950306 0.0247612
16836 3 0.47889 0.288388 0.0247612
17380 1 0.464867 0.119201 0.0493487
17386 1 0.464867 0.619201 0.0493487
16837 3 0.492963 0.457482 0.00038994
16843 3 0.492963 0.957483 0.00038994
17389 1 0.492981 0.457481 0.0493309
17395 1 0.492981 0.957481 0.0493309
17894 3 0.183345 0.738218 0.0978748
17895 3 0.169271 0.0673514 0.122246
17900 3 0.183345 0.238218 0.0978748
17901 3 0.169271 0.567351 0.122246
17346 3 0.225565 0.745886 0.0735036
17352 3 0.225565 0.245886 0.0735036
17355 3 0.253713 0.0830847 0.0735036
17361 3 0.253713 0.583084 0.0735036
17896 3 0.211492 0.075138 0.0978748
17897 3 0.197418 0.404193 0.122246
17898 1 0.225777 0.74196 0.122463
17902 3 0.211492 0.575137 0.0978748
17903 3 0.197418 0.904193 0.122246
17904 1 0.225777 0.24196 0.122463
17905 3 0.239639 0.412308 0.0978748
17907 1 0.253925 0.0795741 0.12256
17911 3 0.239639 0.912308 0.0978748
17913 1 0.253925 0.579574 0.12256
17357 3 0.28186 0.420514 0.0735036
17358 1 0.31009 0.758972 0.0738054
17363 3 0.28186 0.920514 0.0735036
17364 1 0.31009 0.258972 0.0738054
17906 1 0.267921 0.750701 0.0981133
17908 1 0.296102 0.0883831 0.0982254
17909 1 0.282008 0.417302 0.122502
17910 1 0.310149 0.755447 0.122503
17912 1 0.267921 0.250701 0.0981133
17914 1 0.296102 0.588383 0.0982254
17915 1 0.282008 0.917302 0.122502
17916 1 0.310149 0.255447 0.122503
17367 1 0.338291 0.0966451 0.0738335
17369 1 0.366419 0.434632 0.0736612
17373 1 0.338291 0.596645 0.0738335
17375 1 0.366419 0.934632 0.0736612
17917 1 0.324216 0.426257 0.0981374
17918 1 0.352363 0.764522 0.0980681
17919 1 0.338284 0.0936895 0.122461
17920 1 0.380473 0.102787 0.0980537
17921 1 0.366407 0.43219 0.122435
17923 1 0.324216 0.926257 0.0981373
17924 1 0.352363 0.264522 0.0980681
17925 1 0.338284 0.59369 0.122461
17926 1 0.380473 0.602787 0.0980537
17927 1 0.366407 0.93219 0.122435
17370 1 0.394575 0.773308 0.0737598
17376 1 0.394575 0.273308 0.0737598
17379 1 0.422715 0.111866 0.0737967
17385 1 0.422715 0.611866 0.0737967
17922 1 0.394529 0.770906 0.122447
17928 1 0.394529 0.270906 0.122447
17929 1 0.408614 0.441564 0.0981178
17930 1 0.436759 0.780349 0.0981316
17931 1 0.422669 0.109971 0.122474
17935 1 0.408614 0.941564 0.0981178
17936 1 0.436759 0.280349 0.0981316
17937 1 0.422669 0.609971 0.122474
17381 1 0.450837 0.450141 0.073746
17382 1 0.478937 0.788366 0.0736896
17387 1 0.450837 0.950141 0.073746
17388 1 0.478937 0.288366 0.0736896
17932 1 0.464882 0.119025 0.0981013
17933 1 0.450805 0.449101 0.122477
17934 1 0.478929 0.788185 0.122464
17938 1 0.464882 0.619025 0.0981013
17939 1 0.450805 0.949101 0.122477
17940 1 0.478929 0.288185 0.122464
17941 1 0.492991 0.457672 0.098075
17947 1 0.492991 0.957672 0.098075
18437 3 0.112977 0.388853 0.170988
18443 3 0.112977 0.888854 0.170988
18438 3 0.141124 0.725176 0.170988
18444 3 0.141124 0.225177 0.170988
18445 3 0.155198 0.396331 0.146617
18446 3 0.183345 0.733065 0.146617
18447 1 0.169238 0.0614876 0.171108
18451 3 0.155198 0.896331 0.146617
18452 3 0.183345 0.233065 0.146617
18453 1 0.169238 0.561488 0.171108
18448 1 0.211696 0.070532 0.146887
18449 1 0.197472 0.398964 0.171143
18450 1 0.225633 0.736594 0.171167
18454 1 0.211696 0.570532 0.146887
18455 1 0.197472 0.898964 0.171143
18456 1 0.225633 0.236594 0.171167
18457 1 0.239782 0.408134 0.146843
18459 1 0.2538 0.0743079 0.171174
18463 1 0.239782 0.908134 0.146843
18465 1 0.2538 0.574308 0.171174
18458 1 0.267923 0.746045 0.146854
18460 1 0.296055 0.0840457 0.146839
18461 1 0.281949 0.412379 0.171172
18462 1 0.310094 0.750735 0.171164
18464 1 0.267923 0.246045 0.146854
18466 1 0.296055 0.584046 0.146839
18467 1 0.281949 0.912379 0.171172
18468 1 0.310094 0.250735 0.171164
18469 1 0.324195 0.422456 0.146821
18470 1 0.352327 0.761066 0.146801
18471 1 0.338235 0.0894554 0.171158
18472 1 0.380455 0.0999422 0.146803
18473 1 0.366371 0.428506 0.171159
18475 1 0.324195 0.922456 0.146821
18476 1 0.352327 0.261066 0.146801
18477 1 0.338235 0.589455 0.171158
18478 1 0.380455 0.599942 0.146803
18479 1 0.366371 0.928506 0.171159
18474 1 0.394505 0.767908 0.171171
18480 1 0.394505 0.267908 0.171171
18481 1 0.408587 0.439144 0.146821
18482 1 0.436724 0.778617 0.146837
18483 1 0.422642 0.107647 0.171189
18487 1 0.408587 0.939144 0.146821
18488 1 0.436724 0.278617 0.146837
18489 1 0.422642 0.607647 0.171189
18484 1 0.464856 0.11818 0.14684
18485 1 0.450779 0.447625 0.171202
18486 1 0.478912 0.787698 0.171207
18490 1 0.464856 0.61818 0.14684
18491 1 0.450779 0.947625 0.171202
18492 1 0.478912 0.287698 0.171207
18493 1 0.492982 0.457735 0.146836
18499 1 0.492982 0.957735 0.146836
18986 3 0.0989034 0.717761 0.19536
18987 3 0.0848298 0.0466087 0.219731
18988 3 0.127051 0.0539107 0.19536
18989 3 0.112977 0.38256 0.219731
18992 3 0.0989034 0.217761 0.19536
18993 3 0.0848298 0.546608 0.219731
18994 3 0.127051 0.55391 0.19536
18995 3 0.112977 0.882561 0.219731
19537 3 0.0707563 0.375424 0.244102
19538 3 0.0989034 0.711157 0.244102
19540 1 0.12719 0.047295 0.244226
19543 3 0.0707563 0.875424 0.244102
19544 3 0.0989034 0.211158 0.244102
19546 1 0.12719 0.547295 0.244226
18990 1 0.141335 0.719172 0.219992
18996 1 0.141335 0.219172 0.219992
18997 1 0.155385 0.391189 0.195619
18998 1 0.183461 0.727585 0.195548
18999 1 0.169413 0.0559995 0.21992
19003 1 0.155385 0.891189 0.195619
19004 1 0.183461 0.227585 0.195548
19005 1 0.169413 0.556 0.21992
19549 1 0.155303 0.384018 0.244245
19550 1 0.183434 0.720773 0.244222
19555 1 0.155303 0.884018 0.244245
19556 1 0.183434 0.220773 0.244222
19000 1 0.211546 0.0646126 0.195479
19001 1 0.197509 0.392806 0.219856
19002 1 0.225614 0.730042 0.219822
19006 1 0.211546 0.564613 0.195479
19007 1 0.197509 0.892806 0.219856
19008 1 0.225614 0.230042 0.219822
19009 1 0.239692 0.402298 0.19549
19011 1 0.253744 0.0678237 0.21982
19015 1 0.239692 0.902298 0.19549
19017 1 0.253744 0.567824 0.21982
19552 1 0.211543 0.0577778 0.24418
19558 1 0.211543 0.557778 0.24418
19561 1 0.23966 0.395223 0.244159
19567 1 0.23966 0.895223 0.244159
19010 1 0.267838 0.740257 0.195494
19012 1 0.295989 0.0786077 0.195497
19013 1 0.281886 0.406075 0.219824
19014 1 0.31003 0.744793 0.219829
19016 1 0.267838 0.240257 0.195494
19018 1 0.295989 0.578608 0.195497
19019 1 0.281886 0.906075 0.219824
19020 1 0.31003 0.244793 0.219829
19562 1 0.267789 0.733235 0.244154
19564 1 0.295927 0.0717966 0.244156
19568 1 0.267789 0.233235 0.244154
19570 1 0.295927 0.571797 0.244156
19021 1 0.324135 0.417358 0.195498
19022 1 0.352277 0.756532 0.195503
19023 1 0.338176 0.0840047 0.219838
19024 1 0.380417 0.0961302 0.195516
19025 1 0.366321 0.423736 0.219853
19027 1 0.324135 0.917358 0.195498
19028 1 0.352277 0.256532 0.195503
19029 1 0.338176 0.584005 0.219838
19030 1 0.380417 0.59613 0.195516
19031 1 0.366321 0.923736 0.219853
19573 1 0.32407 0.410936 0.244164
19574 1 0.352216 0.750691 0.24418
19576 1 0.380366 0.0910795 0.244204
19579 1 0.32407 0.910936 0.244164
19580 1 0.352216 0.250691 0.24418
19582 1 0.380366 0.591079 0.244204
19026 1 0.394466 0.763977 0.219875
19032 1 0.394466 0.263977 0.219875
19033 1 0.408557 0.436136 0.195536
19034 1 0.436698 0.776488 0.195556
19035 1 0.422612 0.104682 0.2199
19039 1 0.408557 0.936136 0.195536
19040 1 0.436698 0.276488 0.195556
19041 1 0.422612 0.604682 0.2199
19585 1 0.408517 0.432093 0.244233
19586 1 0.43667 0.773655 0.244262
19591 1 0.408517 0.932093 0.244233
19592 1 0.43667 0.273655 0.244262
19036 1 0.464837 0.11707 0.195568
19037 1 0.450757 0.445763 0.219921
19038 1 0.478901 0.787075 0.219932
19042 1 0.464837 0.61707 0.195568
19043 1 0.450757 0.945763 0.219921
19044 1 0.478901 0.287075 0.219932
19588 1 0.464822 0.115623 0.244283
19594 1 0.464822 0.615623 0.244283
19045 1 0.492974 0.457748 0.195573
19051 1 0.492974 0.957748 0.195573
19597 1 0.492972 0.457799 0.244291
19603 1 0.492972 0.957799 0.244291
19530 3 0.0566827 0.704238 0.268473
19536 3 0.0566827 0.204238 0.268473
20080 3 0.0426091 0.0330774 0.292845
20086 3 0.0426091 0.533077 0.292845
19539 3 0.0848298 0.0397347 0.268473
19541 1 0.113122 0.375587 0.268556
19545 3 0.0848298 0.539734 0.268473
19547 1 0.113122 0.875587 0.268556
20089 3 0.0707563 0.368325 0.292845
20090 1 0.0990799 0.703875 0.292902
20092 1 0.127154 0.0397053 0.292876
20095 3 0.0707563 0.868325 0.292845
20096 1 0.0990799 0.203875 0.292902
20098 1 0.127154 0.539705 0.292876
19542 1 0.141206 0.711805 0.268546
19548 1 0.141206 0.211805 0.268546
19551 1 0.169341 0.0484582 0.268555
19557 1 0.169341 0.548458 0.268555
20101 1 0.155267 0.37596 0.292882
20102 1 0.183381 0.712601 0.292876
20107 1 0.155267 0.87596 0.292882
20108 1 0.183381 0.212601 0.292876
19553 1 0.197461 0.385306 0.268533
19554 1 0.225578 0.722491 0.268509
19559 1 0.197461 0.885306 0.268533
19560 1 0.225578 0.222491 0.268509
19563 1 0.253698 0.0601772 0.268493
19569 1 0.253698 0.560177 0.268493
20119 1 0.23961 0.88694 0.29284
20113 1 0.23961 0.38694 0.29284
20104 1 0.211496 0.0495638 0.29286
20110 1 0.211496 0.549564 0.29286
19565 1 0.281826 0.398455 0.268487
19566 1 0.309962 0.737384 0.268489
19571 1 0.281826 0.898455 0.268487
19572 1 0.309962 0.237384 0.268489
20122 1 0.295857 0.56344 0.292819
20120 1 0.267729 0.224857 0.292826
20116 1 0.295857 0.0634401 0.292819
20114 1 0.267729 0.724857 0.292826
20134 1 0.380295 0.584206 0.292867
20132 1 0.352139 0.243008 0.292839
20131 1 0.323993 0.902789 0.292823
20128 1 0.380295 0.0842062 0.292867
20126 1 0.352139 0.743008 0.292839
20125 1 0.323993 0.40279 0.292823
19575 1 0.338106 0.077015 0.268502
19577 1 0.366256 0.417413 0.268524
19581 1 0.338106 0.577015 0.268502
19583 1 0.366256 0.917413 0.268524
20144 1 0.436629 0.269611 0.292945
20143 1 0.408459 0.926432 0.292904
20138 1 0.436629 0.769611 0.292945
20137 1 0.408459 0.426432 0.292904
19578 1 0.394412 0.758618 0.268555
19584 1 0.394412 0.258618 0.268555
19587 1 0.422572 0.100595 0.26859
19593 1 0.422572 0.600595 0.26859
20146 1 0.4648 0.613536 0.292976
20140 1 0.4648 0.113536 0.292976
19589 1 0.450732 0.443211 0.268621
19590 1 0.478892 0.786248 0.26864
19595 1 0.450732 0.943211 0.268621
19596 1 0.478892 0.286248 0.26864
20149 1 0.492973 0.457878 0.292988
20155 1 0.492973 0.957878 0.292988
20640 1 0.056765 0.189551 0.365868
20639 3 0.0285356 0.854501 0.365958
20638 3 0.0426091 0.525679 0.341587
20634 1 0.056765 0.689551 0.365868
20633 3 0.0285356 0.354501 0.365958
20632 3 0.0426091 0.0256791 0.341587
20081 3 0.0285356 0.36197 0.317216
20082 3 0.0566827 0.696963 0.317216
20087 3 0.0285356 0.861971 0.317216
20088 3 0.0566827 0.196963 0.317216
20651 1 0.11312 0.858978 0.365965
20650 1 0.127192 0.531093 0.341596
20649 1 0.0850435 0.523789 0.36596
20648 1 0.099132 0.195449 0.34161
20647 1 0.0710702 0.859933 0.341618
20645 1 0.11312 0.358978 0.365965
20644 1 0.127192 0.0310935 0.341596
20643 1 0.0850435 0.023789 0.36596
20642 1 0.099132 0.695449 0.34161
20641 1 0.0710702 0.359933 0.341618
20091 1 0.0851586 0.0319837 0.317266
20093 1 0.11315 0.367474 0.317232
20097 1 0.0851586 0.531984 0.317266
20099 1 0.11315 0.867474 0.317232
20661 1 0.169297 0.530368 0.365935
20660 1 0.183356 0.203368 0.34157
20659 1 0.155264 0.867054 0.341584
20655 1 0.169297 0.0303683 0.365935
20654 1 0.183356 0.703368 0.34157
20653 1 0.155264 0.367054 0.341584
20652 1 0.141206 0.194504 0.365952
20646 1 0.141206 0.694504 0.365952
20094 1 0.141227 0.703449 0.31723
20100 1 0.141227 0.203449 0.31723
20103 1 0.169317 0.039794 0.317224
20109 1 0.169317 0.539794 0.317224
20673 1 0.253583 0.540253 0.365867
20671 1 0.239556 0.877133 0.341528
20667 1 0.253583 0.0402532 0.365867
20665 1 0.239556 0.377133 0.341528
20664 1 0.225485 0.203169 0.365891
20663 1 0.197391 0.86657 0.365915
20662 1 0.211454 0.540038 0.34155
20658 1 0.225485 0.703169 0.365891
20657 1 0.197391 0.36657 0.365915
20656 1 0.211454 0.0400382 0.34155
20121 1 0.253638 0.551062 0.317172
20115 1 0.253638 0.0510619 0.317172
20105 1 0.197421 0.376478 0.317211
20106 1 0.225528 0.713533 0.317192
20111 1 0.197421 0.876478 0.317211
20112 1 0.225528 0.213533 0.317192
20676 1 0.309792 0.216505 0.365823
20675 1 0.281684 0.877967 0.365844
20674 1 0.295775 0.55313 0.34149
20672 1 0.267662 0.214777 0.341507
20670 1 0.309792 0.716505 0.365823
20669 1 0.281684 0.377967 0.365844
20668 1 0.295775 0.0531303 0.34149
20666 1 0.267662 0.714777 0.341507
20124 1 0.30988 0.228116 0.317151
20123 1 0.281755 0.889207 0.317158
20118 1 0.30988 0.728116 0.317151
20117 1 0.281755 0.389207 0.317158
20687 1 0.366049 0.897139 0.365809
20686 1 0.380192 0.574587 0.341504
20685 1 0.337911 0.556121 0.36581
20684 1 0.352036 0.232783 0.341485
20683 1 0.323899 0.89239 0.341481
20681 1 0.366049 0.397139 0.365809
20680 1 0.380192 0.0745873 0.341504
20679 1 0.337911 0.056121 0.36581
20678 1 0.352036 0.732783 0.341485
20677 1 0.323899 0.39239 0.341481
20135 1 0.366168 0.908885 0.317174
20133 1 0.338017 0.56795 0.317156
20129 1 0.366168 0.408885 0.317174
20127 1 0.338017 0.0679497 0.317156
20697 1 0.422401 0.585132 0.36587
20696 1 0.43656 0.263304 0.341593
20695 1 0.408368 0.91805 0.341542
20691 1 0.422401 0.0851323 0.36587
20690 1 0.43656 0.763304 0.341593
20689 1 0.408368 0.41805 0.341542
20688 1 0.394211 0.239987 0.365828
20682 1 0.394211 0.739987 0.365828
20145 1 0.422508 0.594605 0.317251
20139 1 0.422508 0.0946054 0.317251
20136 1 0.394332 0.251083 0.317207
20130 1 0.394332 0.751083 0.317207
20700 1 0.478852 0.282677 0.365968
20699 1 0.450619 0.932849 0.365927
20698 1 0.464764 0.610158 0.341638
20694 1 0.478852 0.782676 0.365968
20693 1 0.450619 0.432849 0.365927
20692 1 0.464764 0.110159 0.341638
20148 1 0.478879 0.284956 0.317323
20147 1 0.450692 0.939342 0.317295
20142 1 0.478879 0.784956 0.317323
20141 1 0.450692 0.439341 0.317295
20707 1 0.492972 0.957967 0.341656
20701 1 0.492972 0.457967 0.341656
21742 1 0.0428963 0.509055 0.439145
21740 3 0.014462 0.175651 0.439072
21736 1 0.0428963 0.00905485 0.439145
21734 3 0.014462 0.67565 0.439072
21192 1 0.0570121 0.180599 0.41474
21191 3 0.0285356 0.84663 0.414701
21190 3 0.0426091 0.517791 0.390329
21189 3 0.00038843 0.512558 0.414701
21188 3 0.014462 0.183455 0.390329
21186 1 0.0570121 0.680599 0.41474
21185 3 0.0285356 0.34663 0.414701
21184 3 0.0426091 0.0177919 0.390329
21183 3 0.00038843 0.0125583 0.414701
21182 3 0.014462 0.683454 0.390329
21754 1 0.127168 0.512073 0.439035
21752 1 0.0990893 0.177489 0.439044
21751 1 0.0710112 0.843222 0.439077
21748 1 0.127168 0.0120731 0.439035
21746 1 0.0990893 0.677489 0.439044
21745 1 0.0710112 0.343222 0.439077
21203 1 0.113098 0.849693 0.41467
21202 1 0.127138 0.522112 0.390314
21201 1 0.0850054 0.514923 0.414663
21200 1 0.0990215 0.18705 0.390308
21199 1 0.0709098 0.852286 0.390294
21197 1 0.113098 0.349693 0.41467
21196 1 0.127138 0.0221123 0.390314
21195 1 0.0850054 0.0149225 0.414663
21194 1 0.0990215 0.68705 0.390308
21193 1 0.0709098 0.352286 0.390294
21764 1 0.183353 0.181878 0.439012
21763 1 0.155262 0.846886 0.439027
21758 1 0.183353 0.681878 0.439012
21757 1 0.155262 0.346886 0.439027
21213 1 0.169292 0.519972 0.414655
21212 1 0.183336 0.193212 0.390285
21211 1 0.15524 0.857511 0.390303
21207 1 0.169292 0.0199721 0.414655
21206 1 0.183336 0.693212 0.390285
21205 1 0.15524 0.357511 0.390303
21204 1 0.141195 0.184729 0.414667
21198 1 0.141195 0.684729 0.414667
21775 1 0.23953 0.852613 0.438968
21769 1 0.23953 0.352613 0.438968
21766 1 0.211443 0.517088 0.438992
21760 1 0.211443 0.0170885 0.438992
21225 1 0.253561 0.527585 0.414586
21223 1 0.23952 0.865733 0.390237
21219 1 0.253561 0.027585 0.414586
21217 1 0.23952 0.365733 0.390237
21216 1 0.225474 0.191313 0.414613
21215 1 0.197385 0.855477 0.414636
21214 1 0.211428 0.529262 0.390262
21210 1 0.225474 0.691313 0.414613
21209 1 0.197385 0.355477 0.414636
21208 1 0.211428 0.0292616 0.390262
21778 1 0.295693 0.525064 0.438911
21776 1 0.267613 0.188552 0.438942
21772 1 0.295693 0.0250642 0.438911
21770 1 0.267613 0.688552 0.438942
21228 1 0.309732 0.202049 0.414526
21227 1 0.281646 0.86443 0.414557
21226 1 0.295706 0.540466 0.390183
21224 1 0.267611 0.202746 0.39021
21222 1 0.309732 0.702049 0.414526
21221 1 0.281646 0.36443 0.414557
21220 1 0.295706 0.0404664 0.390183
21218 1 0.267611 0.702746 0.39021
21790 1 0.379927 0.540969 0.438797
21788 1 0.351846 0.200823 0.438838
21787 1 0.32377 0.862376 0.438876
21784 1 0.379927 0.0409689 0.438797
21782 1 0.351846 0.700824 0.438838
21781 1 0.32377 0.362376 0.438876
21239 1 0.365923 0.880886 0.414464
21238 1 0.380053 0.560758 0.390129
21237 1 0.337822 0.540728 0.414493
21236 1 0.351919 0.219075 0.390136
21235 1 0.323806 0.879135 0.390157
21233 1 0.365923 0.380886 0.414464
21232 1 0.380053 0.0607585 0.390129
21231 1 0.337822 0.0407275 0.414493
21230 1 0.351919 0.719075 0.390136
21229 1 0.323806 0.379135 0.390157
21800 1 0.436177 0.231688 0.438709
21799 1 0.408027 0.883806 0.438754
21794 1 0.436177 0.731688 0.438709
21793 1 0.408027 0.383807 0.438754
21249 1 0.422214 0.568985 0.41444
21248 1 0.436433 0.252436 0.390186
21247 1 0.40822 0.904892 0.390142
21243 1 0.422214 0.0689839 0.41444
21242 1 0.436433 0.752437 0.390186
21241 1 0.40822 0.404892 0.390142
21240 1 0.394047 0.223223 0.414443
21234 1 0.394047 0.723223 0.414443
21802 1 0.464491 0.589464 0.438747
21796 1 0.464491 0.0894646 0.438747
21252 1 0.478792 0.277881 0.41455
21251 1 0.45046 0.920252 0.414482
21250 1 0.464691 0.603898 0.390248
21246 1 0.478792 0.77788 0.41455
21245 1 0.45046 0.420251 0.414482
21244 1 0.464691 0.103899 0.390248
21811 1 0.492965 0.958117 0.438835
21805 1 0.492965 0.458118 0.438835
21259 1 0.492969 0.958044 0.390277
21253 1 0.492969 0.458045 0.390277
21744 1 0.0570509 0.171607 0.463466
21743 3 0.0285356 0.838489 0.463443
21741 3 0.00038843 0.504864 0.463443
21738 1 0.0570509 0.671607 0.463466
21737 3 0.0285356 0.338488 0.463443
21735 3 0.00038843 0.00486486 0.463443
22286 3 0.014462 0.667669 0.487814
22288 1 0.042876 0.000301592 0.487811
22292 3 0.014462 0.16767 0.487814
22294 1 0.042876 0.500302 0.487811
21755 1 0.113157 0.839693 0.463414
21753 1 0.0850851 0.505532 0.463434
21749 1 0.113157 0.339693 0.463414
21747 1 0.0850851 0.00553168 0.463434
22297 1 0.0710364 0.334042 0.487808
22298 1 0.0991343 0.667741 0.487797
22300 1 0.127219 0.00160296 0.487783
22303 1 0.0710364 0.834042 0.487808
22304 1 0.0991343 0.167741 0.487797
22306 1 0.127219 0.501603 0.487783
21765 1 0.169331 0.508552 0.463389
21759 1 0.169331 0.00855192 0.463389
21756 1 0.141241 0.174059 0.463403
21750 1 0.141241 0.674059 0.463403
22309 1 0.155311 0.335604 0.487768
22310 1 0.183407 0.66966 0.487752
22315 1 0.155311 0.835604 0.487768
22316 1 0.183407 0.16966 0.487752
21777 1 0.2536 0.51301 0.463329
21771 1 0.2536 0.0130104 0.463329
21768 1 0.225513 0.177963 0.463352
21767 1 0.197423 0.843169 0.463372
21762 1 0.225513 0.677963 0.463352
21761 1 0.197423 0.343169 0.463372
22312 1 0.211502 0.0037692 0.487734
22318 1 0.211502 0.503769 0.487734
22321 1 0.239597 0.337975 0.487714
22327 1 0.239597 0.837975 0.487714
21780 1 0.30976 0.184311 0.463273
21779 1 0.281683 0.848407 0.463303
21774 1 0.30976 0.684311 0.463273
21773 1 0.281683 0.348407 0.463303
22322 1 0.267688 0.672322 0.487693
22324 1 0.295776 0.00686999 0.48767
22328 1 0.267688 0.172322 0.487693
22330 1 0.295776 0.50687 0.48767
21791 1 0.365889 0.858721 0.463197
21789 1 0.337829 0.520951 0.463238
21785 1 0.365889 0.358721 0.463197
21783 1 0.337829 0.0209503 0.463238
22333 1 0.323855 0.341726 0.487645
22334 1 0.351923 0.677066 0.487618
22336 1 0.379968 0.0131833 0.487585
22339 1 0.323855 0.841726 0.487645
22340 1 0.351923 0.177067 0.487618
22342 1 0.379968 0.513183 0.487585
21801 1 0.421986 0.541158 0.463073
21795 1 0.421986 0.0411575 0.463073
21792 1 0.393939 0.19834 0.463146
21786 1 0.393939 0.698339 0.463146
22345 1 0.407974 0.350648 0.48754
22346 1 0.435939 0.690736 0.487475
22351 1 0.407974 0.850648 0.48754
22352 1 0.435939 0.190735 0.487475
21804 1 0.478589 0.262442 0.463027
21803 1 0.450101 0.891748 0.462953
21798 1 0.478589 0.762442 0.463027
21797 1 0.450101 0.391746 0.462953
22348 1 0.463991 0.0412784 0.487319
22354 1 0.463991 0.541278 0.487319
22357 1 0.492961 0.458187 0.487368
22363 1 0.492961 0.958186 0.487368
22287 3 0.00038843 0.99708 0.512186
22289 3 0.0285356 0.330237 0.512186
22290 1 0.0570589 0.662725 0.512156
22293 3 0.00038843 0.497079 0.512186
22295 3 0.0285356 0.830238 0.512186
22296 1 0.0570589 0.162725 0.512156
22838 3 0.014462 0.659668 0.536557
22839 3 0.00038843 0.98935 0.560928
22840 1 0.042904 0.991911 0.536482
22841 3 0.0285356 0.322052 0.560928
22842 1 0.0570003 0.65419 0.560908
22844 3 0.014462 0.159669 0.536557
22845 3 0.00038843 0.489349 0.560928
22846 1 0.042904 0.491911 0.536482
22847 3 0.0285356 0.822053 0.560928
22848 1 0.0570003 0.15419 0.560908
22299 1 0.0851023 0.996028 0.512171
22301 1 0.113188 0.329533 0.512163
22305 1 0.0851023 0.496028 0.512171
22307 1 0.113188 0.829533 0.512163
22849 1 0.071029 0.324895 0.536544
22850 1 0.0991389 0.657952 0.536538
22851 1 0.0850652 0.986777 0.560909
22852 1 0.127243 0.991076 0.536524
22853 1 0.113191 0.31954 0.560893
22855 1 0.071029 0.824895 0.536544
22856 1 0.0991389 0.157952 0.536538
22857 1 0.0850652 0.486777 0.560909
22858 1 0.127243 0.491076 0.536524
22859 1 0.113191 0.81954 0.560893
22302 1 0.141285 0.6631 0.512148
22308 1 0.141285 0.1631 0.512148
22311 1 0.169386 0.996643 0.512131
22317 1 0.169386 0.496643 0.512131
22854 1 0.141311 0.652246 0.56088
22860 1 0.141311 0.152246 0.56088
22861 1 0.155355 0.324171 0.536508
22862 1 0.183466 0.657153 0.536491
22863 1 0.169431 0.984798 0.560865
22867 1 0.155355 0.824171 0.536508
22868 1 0.183466 0.157153 0.536491
22869 1 0.169431 0.484798 0.560865
22313 1 0.197489 0.330148 0.512114
22314 1 0.225592 0.663606 0.512097
22319 1 0.197489 0.830148 0.512114
22320 1 0.225592 0.163606 0.512097
22323 1 0.253695 0.997024 0.512079
22329 1 0.253695 0.497024 0.512079
22864 1 0.211578 0.989993 0.536475
22865 1 0.197552 0.317147 0.560849
22866 1 0.225673 0.649222 0.560834
22870 1 0.211578 0.489993 0.536475
22871 1 0.197552 0.817147 0.560849
22872 1 0.225673 0.149222 0.560834
22873 1 0.239692 0.32265 0.536459
22875 1 0.253797 0.980941 0.560821
22879 1 0.239692 0.82265 0.536459
22881 1 0.253797 0.480941 0.560821
22325 1 0.281796 0.330388 0.512062
22326 1 0.309894 0.663673 0.512045
22331 1 0.281796 0.830388 0.512062
22332 1 0.309894 0.163673 0.512045
22874 1 0.267806 0.655069 0.536445
22876 1 0.295919 0.987139 0.536433
22877 1 0.281922 0.312163 0.560813
22878 1 0.310046 0.642674 0.560812
22880 1 0.267806 0.15507 0.536445
22882 1 0.295919 0.487139 0.536433
22883 1 0.281922 0.812163 0.560813
22884 1 0.310046 0.142674 0.560812
22335 1 0.337985 0.996842 0.512031
22337 1 0.366065 0.329767 0.512021
22341 1 0.337985 0.496842 0.512031
22343 1 0.366065 0.829767 0.512021
22885 1 0.324031 0.318691 0.536428
22886 1 0.352141 0.649391 0.536432
22887 1 0.338169 0.972108 0.560822
22888 1 0.380246 0.97856 0.536454
22889 1 0.36629 0.299826 0.560854
22891 1 0.324031 0.818691 0.536428
22892 1 0.352141 0.14939 0.536432
22893 1 0.338169 0.472108 0.560822
22894 1 0.380246 0.47856 0.536454
22895 1 0.36629 0.799826 0.560854
22338 1 0.394126 0.662143 0.512019
22344 1 0.394126 0.162142 0.512019
22347 1 0.422164 0.993108 0.512034
22353 1 0.422164 0.493109 0.512034
22890 1 0.394407 0.62469 0.560922
22896 1 0.394407 0.12469 0.560922
22897 1 0.40835 0.304791 0.536512
22898 1 0.436474 0.624781 0.536641
22899 1 0.422522 0.944689 0.561056
22903 1 0.40835 0.804791 0.536512
22904 1 0.436474 0.124782 0.536641
22905 1 0.422522 0.444689 0.561056
22349 1 0.450247 0.3203 0.512101
22350 1 0.478521 0.624854 0.512371
22355 1 0.450247 0.8203 0.512101
22356 1 0.478521 0.124854 0.512371
22900 1 0.464617 0.929326 0.536986
22901 1 0.450632 0.256459 0.561335
22902 1 0.478793 0.558916 0.561688
22906 1 0.464617 0.429325 0.536986
22907 1 0.450632 0.75646 0.561335
22908 1 0.478793 0.0589162 0.561688
22909 1 0.492956 0.208431 0.537477
22915 1 0.492956 0.708431 0.537477
23390 3 0.014462 0.651806 0.585299
23392 3 0.0426091 0.984245 0.585299
23393 3 0.0285356 0.3141 0.609671
23394 1 0.0569993 0.645172 0.60959
23396 3 0.014462 0.151806 0.585299
23398 3 0.0426091 0.484244 0.585299
23399 3 0.0285356 0.814101 0.609671
23400 1 0.0569993 0.145172 0.60959
23401 1 0.0710023 0.316146 0.58526
23402 1 0.0991361 0.648485 0.585252
23403 1 0.0851078 0.97768 0.609609
23404 1 0.12726 0.980817 0.585248
23405 1 0.113214 0.309855 0.609614
23407 1 0.0710023 0.816146 0.58526
23408 1 0.0991361 0.148485 0.585252
23409 1 0.0851078 0.47768 0.609609
23410 1 0.12726 0.480817 0.585248
23411 1 0.113214 0.809855 0.609614
23406 1 0.141325 0.641829 0.609607
23412 1 0.141325 0.141829 0.609607
23413 1 0.155384 0.313045 0.585236
23414 1 0.18351 0.645029 0.585221
23415 1 0.169453 0.973568 0.609592
23419 1 0.155384 0.813045 0.585236
23420 1 0.18351 0.145029 0.585221
23421 1 0.169453 0.473568 0.609592
23416 1 0.211638 0.976689 0.585206
23417 1 0.197586 0.30495 0.609576
23418 1 0.225721 0.635883 0.609562
23422 1 0.211638 0.476688 0.585206
23423 1 0.197586 0.80495 0.609576
23424 1 0.225721 0.135883 0.609562
23425 1 0.239768 0.307926 0.585193
23427 1 0.253857 0.966239 0.609555
23431 1 0.239768 0.807926 0.585193
23433 1 0.253857 0.466239 0.609555
23426 1 0.2679 0.638603 0.585186
23428 1 0.296031 0.96851 0.585187
23429 1 0.281992 0.295838 0.609556
23430 1 0.310125 0.624436 0.60957
23432 1 0.2679 0.138603 0.585186
23434 1 0.296031 0.46851 0.585187
23435 1 0.281992 0.795838 0.609556
23436 1 0.310125 0.124436 0.60957
23437 1 0.32416 0.297331 0.5852
23438 1 0.352286 0.624564 0.585234
23439 1 0.338252 0.951661 0.609603
23440 1 0.380406 0.949436 0.5853
23441 1 0.366372 0.277011 0.609663
23443 1 0.32416 0.797331 0.5852
23444 1 0.352286 0.124565 0.585234
23445 1 0.338252 0.451661 0.609603
23446 1 0.380406 0.449436 0.5853
23447 1 0.366372 0.777011 0.609663
23442 1 0.394484 0.599861 0.609763
23448 1 0.394484 0.0998608 0.609763
23449 1 0.408519 0.270817 0.585417
23450 1 0.436625 0.587342 0.585618
23451 1 0.422591 0.919606 0.609913
23455 1 0.408519 0.770818 0.585417
23456 1 0.436625 0.0873408 0.585618
23457 1 0.422591 0.419606 0.609913
23452 1 0.464752 0.898937 0.585868
23453 1 0.450709 0.236307 0.610094
23454 1 0.478863 0.551265 0.610217
23458 1 0.464752 0.398938 0.585868
23459 1 0.450709 0.736307 0.610094
23460 1 0.478863 0.0512652 0.610217
23461 1 0.492951 0.20853 0.58597
23467 1 0.492951 0.708529 0.58597
23942 3 0.014462 0.644226 0.634042
23944 3 0.0426091 0.976252 0.634042
23945 3 0.0285356 0.30652 0.658413
23946 3 0.0566827 0.638282 0.658413
23948 3 0.014462 0.144226 0.634042
23950 3 0.0426091 0.476251 0.634042
23951 3 0.0285356 0.806521 0.658413
23952 3 0.0566827 0.138283 0.658413
24496 3 0.0426091 0.968723 0.682784
24502 3 0.0426091 0.468722 0.682784
23953 1 0.0711046 0.307661 0.633963
23954 1 0.0991362 0.639439 0.633991
23955 1 0.0850316 0.969841 0.65834
23956 1 0.127254 0.971195 0.63398
23957 1 0.113144 0.301205 0.658354
23959 1 0.0711046 0.807661 0.633963
23960 1 0.0991362 0.139439 0.633991
23961 1 0.0850316 0.469841 0.65834
23962 1 0.127254 0.471195 0.63398
23963 1 0.113144 0.801205 0.658354
24505 3 0.0707563 0.30022 0.682784
24506 1 0.0990767 0.631551 0.682697
24508 1 0.127189 0.962659 0.682704
24511 3 0.0707563 0.80022 0.682784
24512 1 0.0990768 0.131551 0.682697
24514 1 0.127189 0.462659 0.682704
23958 1 0.14129 0.632467 0.658334
23964 1 0.14129 0.132467 0.658334
23965 1 0.15538 0.302721 0.633964
23966 1 0.183517 0.633916 0.633944
23967 1 0.169434 0.963495 0.658313
23971 1 0.15538 0.802721 0.633964
23972 1 0.183517 0.133916 0.633944
23973 1 0.169434 0.463495 0.658313
24517 1 0.155344 0.29357 0.682678
24518 1 0.183495 0.62418 0.682655
24523 1 0.155344 0.79357 0.682678
24524 1 0.183495 0.12418 0.682655
23968 1 0.211658 0.964669 0.633928
23969 1 0.197581 0.294148 0.658292
23970 1 0.225727 0.624277 0.658281
23974 1 0.211658 0.464669 0.633928
23975 1 0.197581 0.794148 0.658292
23976 1 0.225727 0.124277 0.658281
23977 1 0.239798 0.294859 0.63392
23979 1 0.253868 0.953747 0.658281
23983 1 0.239798 0.794859 0.63392
23985 1 0.253868 0.453747 0.658281
24520 1 0.211648 0.95433 0.682639
24526 1 0.211648 0.45433 0.682639
24529 1 0.239793 0.283869 0.682638
24535 1 0.239793 0.783869 0.682638
23978 1 0.267936 0.624335 0.633921
23980 1 0.29607 0.952917 0.633934
23981 1 0.282004 0.28242 0.658294
23982 1 0.310133 0.610129 0.658323
23984 1 0.267936 0.124335 0.633921
23986 1 0.29607 0.452917 0.633934
23987 1 0.282004 0.78242 0.658294
23988 1 0.310133 0.110129 0.658323
24530 1 0.267932 0.612696 0.68265
24532 1 0.296062 0.940697 0.682676
24536 1 0.267932 0.112696 0.68265
24538 1 0.296062 0.440697 0.682676
23989 1 0.324198 0.28035 0.633965
23990 1 0.352319 0.606297 0.634019
23991 1 0.338255 0.936665 0.65837
23992 1 0.380432 0.930405 0.634103
23993 1 0.36637 0.2618 0.658441