ITEM: TIMESTEP
38
ITEM: NUMBER OF ATOMS
2360
ITEM: BOX BOUNDS ss pp ss
-4.1263466440999998e+01 4.1554841578000001e+01
-4.1208122699999999e-01 4.5329187729999996e+00
-4.1585736442000005e+01 4.1249249110000001e+01
ITEM: ATOMS id type xs ys zs
17356 3 0.295933 0.0915759 0.0491324
17362 3 0.295933 0.591575 0.0491324
16815 3 0.338154 0.0992518 0.0247612
16817 3 0.366301 0.436874 0.0247612
16821 3 0.338154 0.599251 0.0247612
16823 3 0.366301 0.936875 0.0247612
17365 3 0.32408 0.429125 0.0491324
17366 3 0.352228 0.766853 0.0491324
17368 3 0.380375 0.104744 0.0491324
17371 3 0.32408 0.929125 0.0491324
17372 3 0.352228 0.266854 0.0491324
17374 3 0.380375 0.604744 0.0491324
16818 3 0.394448 0.77463 0.0247612
16824 3 0.394448 0.27463 0.0247612
16826 3 0.436669 0.78195 0.00038994
16827 3 0.422595 0.112494 0.0247612
16832 3 0.436669 0.281951 0.00038994
16833 3 0.422595 0.612494 0.0247612
17377 1 0.408643 0.442842 0.0492011
17378 1 0.4368 0.782101 0.0494696
17383 1 0.408643 0.942842 0.0492011
17384 1 0.4368 0.282101 0.0494696
16828 3 0.464816 0.119707 0.00038994
16829 3 0.450743 0.450441 0.0247612
16830 3 0.47889 0.788443 0.0247612
16834 3 0.464816 0.619707 0.00038994
16835 3 0.450743 0.950442 0.0247612
16836 3 0.47889 0.288443 0.0247612
17380 1 0.464923 0.119696 0.0494936
17386 1 0.464923 0.619696 0.0494936
16837 3 0.492963 0.457496 0.00038994
16843 3 0.492963 0.957497 0.00038994
17389 1 0.492962 0.457477 0.0493807
17395 1 0.492962 0.957477 0.0493807
17895 3 0.169271 0.0682042 0.122246
17901 3 0.169271 0.568204 0.122246
17355 3 0.253713 0.0837434 0.0735036
17361 3 0.253713 0.583743 0.0735036
17896 3 0.211492 0.075903 0.0978748
17897 3 0.197418 0.405032 0.122246
17898 3 0.225565 0.742123 0.122246
17902 3 0.211492 0.575902 0.0978748
17903 3 0.197418 0.905033 0.122246
17904 3 0.225565 0.242123 0.122246
17905 3 0.239639 0.413044 0.0978748
17907 1 0.25385 0.0803822 0.122479
17911 3 0.239639 0.913045 0.0978748
17913 1 0.25385 0.580382 0.122479
17357 3 0.28186 0.42113 0.0735036
17358 3 0.310007 0.758737 0.0735036
17363 3 0.28186 0.92113 0.0735036
17364 3 0.310007 0.258737 0.0735036
17906 3 0.267786 0.750435 0.0978748
17908 1 0.296061 0.0890522 0.0981222
17909 1 0.282039 0.418117 0.122571
17910 1 0.310137 0.755986 0.122517
17912 3 0.267786 0.250435 0.0978748
17914 1 0.296061 0.589052 0.0981222
17915 1 0.282039 0.918117 0.122571
17916 1 0.310137 0.255986 0.122517
17367 1 0.338234 0.0973442 0.073812
17369 1 0.366431 0.435123 0.0738415
17373 1 0.338234 0.597344 0.073812
17375 1 0.366431 0.935123 0.0738415
17917 1 0.324241 0.426903 0.0982372
17918 1 0.352351 0.764906 0.0981535
17919 1 0.338282 0.0942712 0.122524
17920 1 0.380494 0.10327 0.0980886
17921 1 0.366415 0.432654 0.122489
17923 1 0.324241 0.926903 0.0982372
17924 1 0.352351 0.264906 0.0981535
17925 1 0.338282 0.594271 0.122524
17926 1 0.380494 0.60327 0.0980886
17927 1 0.366415 0.932654 0.122489
17370 1 0.394553 0.773177 0.0736741
17376 1 0.394553 0.273177 0.0736741
17379 1 0.4227 0.111891 0.073778
17385 1 0.4227 0.611891 0.073778
17922 1 0.394531 0.771259 0.122469
17928 1 0.394531 0.271259 0.122469
17929 1 0.408596 0.441599 0.0980801
17930 1 0.436725 0.780386 0.0981526
17931 1 0.422645 0.110028 0.122489
17935 1 0.408596 0.941599 0.0980801
17936 1 0.436725 0.280386 0.0981526
17937 1 0.422645 0.610028 0.122489
17381 1 0.450827 0.450432 0.0738221
17382 1 0.478927 0.788579 0.0737903
17387 1 0.450827 0.950432 0.0738221
17388 1 0.478927 0.288579 0.0737903
17932 1 0.464855 0.11908 0.0981801
17933 1 0.450774 0.449067 0.122526
17934 1 0.4789 0.788076 0.122542
17938 1 0.464855 0.61908 0.0981801
17939 1 0.450774 0.949067 0.122526
17940 1 0.4789 0.288076 0.122542
17941 1 0.49296 0.457521 0.0981782
17947 1 0.49296 0.957521 0.0981782
18438 3 0.141124 0.726161 0.170988
18444 3 0.141124 0.226162 0.170988
18445 3 0.155198 0.397251 0.146617
18446 3 0.183345 0.733979 0.146617
18447 3 0.169271 0.0627585 0.170988
18451 3 0.155198 0.897251 0.146617
18452 3 0.183345 0.23398 0.146617
18453 3 0.169271 0.562758 0.170988
18448 1 0.211701 0.071574 0.146831
18449 1 0.197619 0.400014 0.171256
18450 1 0.225702 0.737443 0.17121
18454 1 0.211701 0.571574 0.146831
18455 1 0.197619 0.900014 0.171256
18456 1 0.225702 0.237443 0.17121
18457 1 0.239849 0.409064 0.146925
18459 1 0.253839 0.0752093 0.171217
18463 1 0.239848 0.909064 0.146925
18465 1 0.253839 0.575209 0.171217
18458 1 0.26793 0.746736 0.14686
18460 1 0.296063 0.0848003 0.146871
18461 1 0.281966 0.413078 0.171205
18462 1 0.310102 0.751387 0.171204
18464 1 0.26793 0.246736 0.14686
18466 1 0.296063 0.5848 0.146871
18467 1 0.281966 0.913078 0.171205
18468 1 0.310102 0.251387 0.171204
18469 1 0.324194 0.422995 0.146864
18470 1 0.35233 0.761602 0.146854
18471 1 0.338238 0.0900063 0.171201
18472 1 0.380457 0.100381 0.146842
18473 1 0.366374 0.42898 0.171204
18475 1 0.324194 0.922995 0.146864
18476 1 0.35233 0.261602 0.146854
18477 1 0.338238 0.590006 0.171201
18478 1 0.380457 0.600381 0.146842
18479 1 0.366374 0.92898 0.171204
18474 1 0.394504 0.768244 0.171212
18480 1 0.394504 0.268244 0.171212
18481 1 0.408578 0.439384 0.146851
18482 1 0.436702 0.778638 0.146876
18483 1 0.422633 0.107798 0.17123
18487 1 0.408578 0.939384 0.146851
18488 1 0.436702 0.278638 0.146876
18489 1 0.422633 0.607798 0.17123
18484 1 0.464833 0.118084 0.146899
18485 1 0.450765 0.447611 0.171251
18486 1 0.478899 0.787594 0.171264
18490 1 0.464833 0.618084 0.146899
18491 1 0.450765 0.947611 0.171251
18492 1 0.478899 0.287594 0.171264
18493 1 0.492964 0.457572 0.146906
18499 1 0.492964 0.957572 0.146906
18986 3 0.0989034 0.718789 0.19536
18987 3 0.0848298 0.047685 0.219731
18988 3 0.127051 0.054957 0.19536
18989 3 0.112977 0.383663 0.219731
18992 3 0.0989034 0.21879 0.19536
18993 3 0.0848298 0.547685 0.219731
18994 3 0.127051 0.554956 0.19536
18995 3 0.112977 0.883663 0.219731
19537 3 0.0707563 0.376542 0.244102
19538 3 0.0989034 0.71231 0.244102
19540 1 0.127263 0.0486601 0.244361
19543 3 0.0707563 0.876543 0.244102
19544 3 0.0989034 0.212311 0.244102
19546 1 0.127263 0.54866 0.244361
18990 1 0.14131 0.7207 0.219988
18996 1 0.14131 0.2207 0.219988
18997 1 0.155162 0.391066 0.195478
18998 1 0.183394 0.728329 0.195512
18999 1 0.169384 0.0568563 0.219918
19003 1 0.155162 0.891066 0.195478
19004 1 0.183394 0.228329 0.195512
19005 1 0.169384 0.556856 0.219918
19549 1 0.15534 0.385213 0.24429
19550 1 0.183433 0.721723 0.244225
19555 1 0.15534 0.885213 0.24429
19556 1 0.183433 0.221723 0.244225
19000 1 0.211552 0.0657425 0.195534
19001 1 0.197465 0.39363 0.219847
19002 1 0.225608 0.73106 0.219856
19006 1 0.211552 0.565743 0.195534
19007 1 0.197465 0.89363 0.219847
19008 1 0.225608 0.23106 0.219856
19009 1 0.239714 0.403253 0.19554
19011 1 0.25375 0.0687667 0.219859
19015 1 0.239714 0.903253 0.19554
19017 1 0.25375 0.568767 0.219859
19552 1 0.211533 0.0586553 0.24419
19558 1 0.211533 0.558655 0.24419
19561 1 0.239658 0.396128 0.244186
19567 1 0.239658 0.896128 0.244186
19010 1 0.267859 0.741135 0.195538
19012 1 0.295999 0.0793277 0.195535
19013 1 0.281895 0.406885 0.219864
19014 1 0.310038 0.745464 0.21987
19016 1 0.267859 0.241135 0.195538
19018 1 0.295999 0.579328 0.195535
19019 1 0.281895 0.906885 0.219864
19020 1 0.310038 0.245464 0.21987
19562 1 0.267793 0.734072 0.244189
19564 1 0.295933 0.0725224 0.244195
19568 1 0.267793 0.234072 0.244189
19570 1 0.295933 0.572522 0.244195
19021 1 0.324141 0.417965 0.19554
19022 1 0.352282 0.757035 0.195548
19023 1 0.338182 0.0845541 0.219881
19024 1 0.38042 0.0965177 0.195561
19025 1 0.366326 0.424166 0.219897
19027 1 0.324141 0.917965 0.19554
19028 1 0.352282 0.257035 0.195548
19029 1 0.338182 0.584554 0.219881
19030 1 0.38042 0.596518 0.195561
19031 1 0.366326 0.924166 0.219897
19573 1 0.324076 0.411537 0.244205
19574 1 0.352223 0.751173 0.244223
19576 1 0.380372 0.0914525 0.244248
19579 1 0.324076 0.911537 0.244205
19580 1 0.352223 0.251173 0.244223
19582 1 0.380372 0.591453 0.244248
19026 1 0.394469 0.764287 0.219919
19032 1 0.394469 0.264287 0.219919
19033 1 0.408556 0.436377 0.195579
19034 1 0.436693 0.776584 0.195601
19035 1 0.422613 0.104872 0.219944
19039 1 0.408556 0.936377 0.195579
19040 1 0.436693 0.276584 0.195601
19041 1 0.422613 0.604872 0.219944
19585 1 0.408522 0.432357 0.244277
19586 1 0.436673 0.773808 0.244306
19591 1 0.408522 0.932357 0.244277
19592 1 0.436673 0.273808 0.244306
19036 1 0.464831 0.117051 0.195618
19037 1 0.450757 0.445839 0.219967
19038 1 0.478902 0.787063 0.219979
19042 1 0.464831 0.617051 0.195618
19043 1 0.450757 0.945839 0.219967
19044 1 0.478902 0.287063 0.219979
19588 1 0.464825 0.115673 0.244327
19594 1 0.464825 0.615673 0.244327
19045 1 0.492971 0.457664 0.195624
19051 1 0.492971 0.957664 0.195624
19597 1 0.492977 0.457767 0.244333
19603 1 0.492977 0.957767 0.244333
19530 3 0.0566827 0.70539 0.268473
19536 3 0.0566827 0.205391 0.268473
20080 3 0.0426091 0.0342573 0.292845
20086 3 0.0426091 0.534257 0.292845
19539 3 0.0848298 0.0409302 0.268473
19541 1 0.113126 0.376789 0.268593
19545 3 0.0848298 0.54093 0.268473
19547 1 0.113126 0.876789 0.268593
20089 3 0.0707563 0.369554 0.292845
20090 1 0.099079 0.705066 0.292918
20092 1 0.127162 0.0409284 0.292914
20095 3 0.0707563 0.869555 0.292845
20096 1 0.099079 0.205066 0.292918
20098 1 0.127162 0.540928 0.292914
19542 1 0.14124 0.713189 0.268614
19548 1 0.14124 0.213189 0.268614
19551 1 0.169366 0.0496116 0.268593
19557 1 0.169366 0.549612 0.268593
20101 1 0.155288 0.377224 0.292928
20102 1 0.183398 0.713714 0.292907
20107 1 0.155288 0.877224 0.292928
20108 1 0.183398 0.213714 0.292907
19553 1 0.19747 0.386275 0.268551
19554 1 0.22558 0.723363 0.268528
19559 1 0.19747 0.886275 0.268551
19560 1 0.22558 0.223363 0.268528
19563 1 0.253701 0.0610056 0.268521
19569 1 0.253701 0.561006 0.268521
20104 1 0.211506 0.0505099 0.292883
20110 1 0.211506 0.55051 0.292883
20113 1 0.239616 0.387782 0.292865
20119 1 0.239616 0.887782 0.292865
19565 1 0.281831 0.399206 0.268521
19566 1 0.309968 0.738029 0.268528
19571 1 0.281831 0.899206 0.268521
19572 1 0.309968 0.238029 0.268528
20114 1 0.267734 0.725624 0.292856
20116 1 0.295861 0.0641224 0.292854
20120 1 0.267734 0.225624 0.292856
20122 1 0.295861 0.564122 0.292854
19575 1 0.338113 0.0775532 0.268542
20134 1 0.380302 0.584583 0.292908
19577 1 0.366263 0.417847 0.268566
20132 1 0.352146 0.243496 0.292878
19581 1 0.338113 0.577553 0.268542
20131 1 0.323999 0.903374 0.292861
19583 1 0.366263 0.917847 0.268566
20128 1 0.380302 0.0845833 0.292908
20126 1 0.352146 0.743496 0.292878
20125 1 0.323999 0.403374 0.292861
20144 1 0.436635 0.269759 0.292987
20143 1 0.408466 0.926689 0.292946
20138 1 0.436635 0.769759 0.292987
20137 1 0.408466 0.426689 0.292946
19578 1 0.394418 0.75894 0.268598
19584 1 0.394418 0.25894 0.268598
19587 1 0.422577 0.100804 0.268633
19593 1 0.422577 0.600804 0.268633
20146 1 0.464808 0.613584 0.293017
20140 1 0.464808 0.113583 0.293017
19589 1 0.450737 0.443309 0.268664
19590 1 0.478899 0.78625 0.268681
19595 1 0.450737 0.943309 0.268664
19596 1 0.478899 0.28625 0.268681
20149 1 0.49298 0.45784 0.293026
20155 1 0.49298 0.95784 0.293026
20640 1 0.056766 0.190833 0.36587
20639 3 0.0285356 0.855777 0.365958
20638 3 0.0426091 0.526948 0.341587
20634 1 0.056766 0.690833 0.36587
20633 3 0.0285356 0.355777 0.365958
20632 3 0.0426091 0.0269486 0.341587
20081 3 0.0285356 0.363169 0.317216
20082 3 0.0566827 0.698217 0.317216
20087 3 0.0285356 0.86317 0.317216
20088 3 0.0566827 0.198217 0.317216
20651 1 0.113123 0.860175 0.365982
20650 1 0.127197 0.532272 0.341619
20649 1 0.0850449 0.525032 0.365968
20648 1 0.0991331 0.196657 0.341623
20647 1 0.0710703 0.861179 0.341622
20645 1 0.113123 0.360175 0.365982
20644 1 0.127197 0.0322716 0.341619
20643 1 0.0850449 0.0250322 0.365968
20642 1 0.0991331 0.696657 0.341623
20641 1 0.0710703 0.361179 0.341622
20091 1 0.0851581 0.0332009 0.317274
20093 1 0.113152 0.368669 0.317253
20097 1 0.0851581 0.533201 0.317274
20099 1 0.113152 0.868669 0.317253
20661 1 0.169305 0.531476 0.365962
20660 1 0.183367 0.204461 0.341599
20659 1 0.155272 0.868205 0.341612
20655 1 0.169305 0.0314762 0.365962
20654 1 0.183367 0.704461 0.341599
20653 1 0.155272 0.368205 0.341612
20652 1 0.141211 0.195657 0.365974
20646 1 0.141211 0.695657 0.365974
20094 1 0.141235 0.70465 0.317262
20100 1 0.141235 0.20465 0.317262
20103 1 0.169331 0.0409563 0.317257
20109 1 0.169331 0.540956 0.317257
20673 1 0.25359 0.5411 0.365897
20671 1 0.239564 0.878011 0.341557
20667 1 0.25359 0.0411005 0.365897
20665 1 0.239564 0.378011 0.341557
20664 1 0.225494 0.204111 0.365921
20663 1 0.197399 0.867608 0.365943
20662 1 0.211464 0.541023 0.341579
20658 1 0.225494 0.704111 0.365921
20657 1 0.197399 0.367608 0.365943
20656 1 0.211464 0.0410233 0.341579
20105 1 0.197433 0.377517 0.31724
20106 1 0.225536 0.714444 0.317219
20111 1 0.197433 0.877517 0.31724
20112 1 0.225536 0.214444 0.317219
20115 1 0.253645 0.0518695 0.317201
20121 1 0.253645 0.551869 0.317201
20676 1 0.309799 0.217158 0.365855
20675 1 0.281691 0.87872 0.365874
20674 1 0.295781 0.55382 0.341522
20672 1 0.267668 0.215557 0.341537
20670 1 0.309799 0.717158 0.365855
20669 1 0.281691 0.37872 0.365874
20668 1 0.295781 0.0538202 0.341522
20666 1 0.267668 0.715557 0.341537
20117 1 0.28176 0.389927 0.317189
20118 1 0.309886 0.728752 0.317185
20123 1 0.28176 0.889927 0.317189
20124 1 0.309886 0.228752 0.317185
20687 1 0.366057 0.897557 0.365845
20686 1 0.3802 0.574951 0.341542
20685 1 0.337919 0.55666 0.365843
20684 1 0.352044 0.233269 0.341521
20683 1 0.323905 0.892986 0.341515
20681 1 0.366057 0.397557 0.365845
20680 1 0.3802 0.0749506 0.341542
20679 1 0.337919 0.0566602 0.365843
20678 1 0.352044 0.733269 0.341521
20677 1 0.323905 0.392986 0.341515
20135 1 0.366175 0.909316 0.317212
20133 1 0.338024 0.568492 0.317192
20129 1 0.366175 0.409316 0.317212
20127 1 0.338024 0.0684919 0.317192
20697 1 0.422411 0.585348 0.365909
20696 1 0.436569 0.263462 0.341632
20695 1 0.408376 0.918307 0.341582
20691 1 0.422411 0.0853486 0.365909
20690 1 0.436569 0.763462 0.341632
20689 1 0.408376 0.418307 0.341582
20688 1 0.394219 0.240297 0.365866
20682 1 0.394219 0.740297 0.365866
20145 1 0.422516 0.594805 0.317292
20139 1 0.422516 0.094805 0.317292
20136 1 0.39434 0.251394 0.317247
20130 1 0.39434 0.751394 0.317247
20700 1 0.478863 0.282737 0.366004
20699 1 0.450629 0.932982 0.365965
20698 1 0.464774 0.610227 0.341676
20694 1 0.478863 0.782737 0.366004
20693 1 0.450629 0.432983 0.365965
20692 1 0.464774 0.110227 0.341676
20148 1 0.478887 0.284966 0.317361
20147 1 0.4507 0.939442 0.317335
20142 1 0.478887 0.784966 0.317361
20141 1 0.4507 0.439442 0.317335
20707 1 0.492982 0.95796 0.341691
20701 1 0.492982 0.45796 0.341691
21742 1 0.0428977 0.510398 0.439147
21740 3 0.014462 0.176968 0.439072
21736 1 0.0428977 0.0103982 0.439147
21734 3 0.014462 0.676967 0.439072
21192 1 0.0570128 0.181918 0.414744
21191 3 0.0285356 0.847965 0.414701
21190 3 0.0426091 0.519135 0.390329
21189 3 0.00038843 0.513821 0.414701
21188 3 0.014462 0.184728 0.390329
21186 1 0.0570128 0.681918 0.414744
21185 3 0.0285356 0.347965 0.414701
21184 3 0.0426091 0.0191359 0.390329
21183 3 0.00038843 0.0138217 0.414701
21182 3 0.014462 0.684728 0.390329
21754 1 0.127174 0.51328 0.43905
21752 1 0.0990929 0.178751 0.439055
21751 1 0.0710137 0.844535 0.439084
21748 1 0.127174 0.0132802 0.43905
21746 1 0.0990929 0.678751 0.439055
21745 1 0.0710137 0.344535 0.439084
21203 1 0.113102 0.850909 0.414684
21202 1 0.127142 0.523291 0.390331
21201 1 0.0850074 0.516195 0.414672
21200 1 0.0990235 0.188283 0.39032
21199 1 0.0709106 0.853574 0.3903
21197 1 0.113102 0.350909 0.414684
21196 1 0.127142 0.0232907 0.390331
21195 1 0.0850074 0.0161955 0.414672
21194 1 0.0990235 0.688283 0.39032
21193 1 0.0709106 0.353574 0.3903
21764 1 0.183362 0.182956 0.439036
21763 1 0.155269 0.848032 0.439046
21758 1 0.183362 0.682956 0.439036
21757 1 0.155269 0.348032 0.439046
21213 1 0.169299 0.521073 0.414678
21212 1 0.183343 0.19428 0.390311
21211 1 0.155246 0.858636 0.390325
21207 1 0.169299 0.0210726 0.414678
21206 1 0.183343 0.69428 0.390311
21205 1 0.155246 0.358636 0.390325
21204 1 0.1412 0.18589 0.414685
21198 1 0.1412 0.68589 0.414685
21775 1 0.239541 0.853546 0.438997
21769 1 0.239541 0.353546 0.438997
21766 1 0.211453 0.518103 0.439019
21760 1 0.211453 0.0181029 0.439019
21225 1 0.25357 0.528467 0.414616
21223 1 0.239528 0.866643 0.390267
21219 1 0.25357 0.0284669 0.414616
21217 1 0.239528 0.366643 0.390267
21216 1 0.225483 0.192284 0.414642
21215 1 0.197393 0.856518 0.414663
21214 1 0.211437 0.530258 0.390291
21210 1 0.225483 0.692284 0.414642
21209 1 0.197393 0.356518 0.414663
21208 1 0.211437 0.0302581 0.390291
21778 1 0.295705 0.525782 0.438941
21776 1 0.267625 0.189386 0.438971
21772 1 0.295705 0.0257819 0.438941
21770 1 0.267625 0.689386 0.438971
21228 1 0.309742 0.202705 0.414556
21227 1 0.281656 0.865205 0.414587
21226 1 0.295714 0.541181 0.390213
21224 1 0.26762 0.203563 0.39024
21222 1 0.309742 0.702706 0.414556
21221 1 0.281656 0.365205 0.414587
21220 1 0.295714 0.0411805 0.390213
21218 1 0.26762 0.703563 0.39024
21790 1 0.37994 0.54135 0.43883
21788 1 0.351858 0.2013 0.43887
21787 1 0.323782 0.86297 0.438907
21784 1 0.37994 0.0413498 0.43883
21782 1 0.351858 0.7013 0.43887
21781 1 0.323782 0.36297 0.438907
21239 1 0.365934 0.881301 0.414498
21238 1 0.380062 0.56112 0.390165
21237 1 0.337832 0.541258 0.414526
21236 1 0.351928 0.219548 0.39017
21235 1 0.323815 0.879732 0.390189
21233 1 0.365934 0.381301 0.414498
21232 1 0.380062 0.0611193 0.390165
21231 1 0.337832 0.041258 0.414526
21230 1 0.351928 0.719548 0.39017
21229 1 0.323815 0.379731 0.390189
21800 1 0.436191 0.23195 0.438743
21799 1 0.40804 0.884118 0.438789
21794 1 0.436191 0.73195 0.438743
21793 1 0.40804 0.384117 0.438789
21249 1 0.422226 0.569239 0.414476
21248 1 0.436444 0.252631 0.390223
21247 1 0.40823 0.905162 0.39018
21243 1 0.422226 0.0692394 0.414476
21242 1 0.436444 0.752631 0.390223
21241 1 0.40823 0.405161 0.39018
21240 1 0.394058 0.223547 0.414478
21234 1 0.394058 0.723547 0.414478
21802 1 0.464506 0.589665 0.438781
21796 1 0.464506 0.0896642 0.438781
21252 1 0.478806 0.278002 0.414584
21251 1 0.450473 0.920449 0.414517
21250 1 0.464702 0.604026 0.390284
21246 1 0.478806 0.778003 0.414584
21245 1 0.450473 0.42045 0.414517
21244 1 0.464702 0.104026 0.390284
21811 1 0.492981 0.958218 0.438866
21805 1 0.492981 0.458216 0.438867
21259 1 0.492982 0.958095 0.390309
21253 1 0.492982 0.458094 0.390309
21744 1 0.0570532 0.172954 0.463472
21743 3 0.0285356 0.839858 0.463443
21741 3 0.00038843 0.506157 0.463443
21738 1 0.0570532 0.672954 0.463472
21737 3 0.0285356 0.339857 0.463443
21735 3 0.00038843 0.00615739 0.463443
22286 3 0.014462 0.669005 0.487814
22288 1 0.0428784 0.00166307 0.487814
22292 3 0.014462 0.169006 0.487814
22294 1 0.0428784 0.501663 0.487814
21755 1 0.113162 0.840944 0.463427
21753 1 0.0850889 0.506838 0.463444
21749 1 0.113162 0.340944 0.463427
21747 1 0.0850889 0.00683821 0.463444
22297 1 0.0710399 0.335381 0.487817
22298 1 0.0991395 0.669039 0.487808
22300 1 0.127226 0.00283833 0.487797
22303 1 0.0710399 0.835381 0.487817
22304 1 0.0991395 0.169039 0.487808
22306 1 0.127226 0.502838 0.487797
21765 1 0.169341 0.509667 0.46341
21759 1 0.169341 0.00966727 0.46341
21756 1 0.141249 0.175246 0.463419
21750 1 0.141249 0.675246 0.463419
22309 1 0.155322 0.336762 0.487786
22310 1 0.183419 0.670742 0.487773
22315 1 0.155322 0.836762 0.487786
22316 1 0.183419 0.170742 0.487773
21777 1 0.253614 0.513891 0.463357
21771 1 0.253614 0.0138906 0.463357
21768 1 0.225526 0.178936 0.463379
21767 1 0.197434 0.844216 0.463396
21762 1 0.225526 0.678936 0.463379
21761 1 0.197434 0.344216 0.463396
22312 1 0.211517 0.0047825 0.487759
22318 1 0.211517 0.504783 0.487759
22321 1 0.239613 0.338905 0.487741
22327 1 0.239613 0.838905 0.487741
21780 1 0.309774 0.184969 0.463302
21779 1 0.281697 0.849184 0.463331
21774 1 0.309774 0.684969 0.463302
21773 1 0.281697 0.349184 0.463331
22322 1 0.267705 0.673151 0.487721
22324 1 0.295793 0.00759019 0.487699
22328 1 0.267705 0.173152 0.487721
22330 1 0.295793 0.50759 0.487699
21791 1 0.365904 0.859157 0.463229
21789 1 0.337843 0.521489 0.463269
21785 1 0.365904 0.359157 0.463229
21783 1 0.337843 0.0214898 0.463269
22333 1 0.323872 0.342325 0.487675
22334 1 0.35194 0.677555 0.487648
22336 1 0.379986 0.0135909 0.487616
22339 1 0.323872 0.842325 0.487675
22340 1 0.35194 0.177555 0.487648
22342 1 0.379986 0.513592 0.487616
21801 1 0.422001 0.54147 0.463106
21795 1 0.422001 0.0414701 0.463106
21792 1 0.393955 0.1987 0.463179
21786 1 0.393955 0.6987 0.463179
22345 1 0.407991 0.351001 0.487572
22346 1 0.435957 0.691047 0.487506
22351 1 0.407991 0.851001 0.487572
22352 1 0.435957 0.191048 0.487506
21804 1 0.478607 0.262645 0.463059
21803 1 0.450118 0.892017 0.462986
21798 1 0.478607 0.762645 0.463059
21797 1 0.450118 0.392018 0.462986
22348 1 0.46401 0.0415711 0.48735
22354 1 0.46401 0.541571 0.48735
22357 1 0.492979 0.458362 0.487399
22363 1 0.492979 0.958362 0.487399
22287 3 0.00038843 0.998377 0.512186
22289 3 0.0285356 0.331613 0.512186
22290 1 0.0570622 0.664094 0.512164
22293 3 0.00038843 0.498377 0.512186
22295 3 0.0285356 0.831613 0.512186
22296 1 0.0570622 0.164094 0.512164
22838 3 0.014462 0.660996 0.536557
22839 3 0.00038843 0.990628 0.560928
22840 1 0.0429085 0.993307 0.536492
22841 3 0.0285356 0.323405 0.560928
22842 1 0.0570126 0.655677 0.560927
22844 3 0.014462 0.160997 0.536557
22845 3 0.00038843 0.490627 0.560928
22846 1 0.0429085 0.493307 0.536492
22847 3 0.0285356 0.823405 0.560928
22848 1 0.0570126 0.155677 0.560927
22299 1 0.085108 0.997376 0.512182
22301 1 0.113197 0.330827 0.512175
22305 1 0.085108 0.497376 0.512182
22307 1 0.113197 0.830827 0.512175
22849 1 0.071036 0.32629 0.536556
22850 1 0.0991501 0.659313 0.536549
22851 1 0.0850827 0.988207 0.560922
22852 1 0.127258 0.992352 0.536536
22853 1 0.11321 0.320877 0.560904
22855 1 0.071036 0.82629 0.536556
22856 1 0.0991501 0.159313 0.536549
22857 1 0.0850827 0.488207 0.560922
22858 1 0.127258 0.492352 0.536536
22859 1 0.11321 0.820877 0.560904
22302 1 0.141297 0.664312 0.512162
22308 1 0.141297 0.164312 0.512162
22311 1 0.1694 0.997771 0.512149
22317 1 0.1694 0.497771 0.512149
22854 1 0.141331 0.653479 0.560894
22860 1 0.141331 0.153479 0.560894
22861 1 0.155371 0.325352 0.536523
22862 1 0.183485 0.658245 0.536511
22863 1 0.169453 0.985932 0.560882
22867 1 0.155371 0.825352 0.536523
22868 1 0.183485 0.158245 0.536511
22869 1 0.169453 0.485932 0.560882
22313 1 0.197505 0.331199 0.512136
22314 1 0.22561 0.66458 0.512122
22319 1 0.197505 0.831199 0.512136
22320 1 0.22561 0.16458 0.512122
22323 1 0.253714 0.997906 0.512106
22329 1 0.253714 0.497906 0.512106
22864 1 0.211599 0.991 0.536498
22865 1 0.197574 0.318189 0.56087
22866 1 0.225697 0.650172 0.560858
22870 1 0.211599 0.491 0.536498
22871 1 0.197574 0.818189 0.56087
22872 1 0.225697 0.150172 0.560858
22873 1 0.239713 0.323569 0.536485
22875 1 0.253821 0.981798 0.560848
22879 1 0.239713 0.823569 0.536485
22881 1 0.253821 0.481798 0.560848
22325 1 0.281816 0.331167 0.51209
22326 1 0.309914 0.664337 0.512074
22331 1 0.281816 0.831167 0.51209
22332 1 0.309914 0.164337 0.512074
22874 1 0.267828 0.65589 0.536472
22876 1 0.295941 0.987856 0.536462
22877 1 0.281945 0.312925 0.560841
22878 1 0.310069 0.643345 0.56084
22880 1 0.267828 0.15589 0.536472
22882 1 0.295941 0.487856 0.536462
22883 1 0.281945 0.812925 0.560841
22884 1 0.310069 0.143345 0.56084
22335 1 0.338005 0.997392 0.512061
22337 1 0.366085 0.330225 0.512052
22341 1 0.338005 0.497392 0.512061
22343 1 0.366085 0.830225 0.512052
22885 1 0.324053 0.319302 0.536457
22886 1 0.352162 0.649901 0.536462
22887 1 0.338193 0.972679 0.560852
22888 1 0.380268 0.978991 0.536485
22889 1 0.366313 0.300303 0.560884
22891 1 0.324053 0.819302 0.536457
22892 1 0.352162 0.149901 0.536462
22893 1 0.338193 0.472679 0.560852
22894 1 0.380268 0.478991 0.536485
22895 1 0.366313 0.800303 0.560884
22338 1 0.394146 0.662532 0.512049
22344 1 0.394146 0.162533 0.512049
22347 1 0.422183 0.993441 0.512065
22353 1 0.422183 0.49344 0.512065
22890 1 0.39443 0.625086 0.560953
22896 1 0.39443 0.125086 0.560953
22897 1 0.408371 0.30515 0.536543
22898 1 0.436495 0.62507 0.536671
22899 1 0.422545 0.945007 0.561087
22903 1 0.408371 0.805151 0.536543
22904 1 0.436495 0.125069 0.536671
22905 1 0.422545 0.445007 0.561087
22349 1 0.450266 0.320583 0.512132
22350 1 0.478539 0.625052 0.512402
22355 1 0.450266 0.820583 0.512132
22356 1 0.478539 0.125052 0.512402
22900 1 0.464637 0.929539 0.537017
22901 1 0.450654 0.2567 0.561367
22902 1 0.478814 0.559076 0.56172
22906 1 0.464637 0.429541 0.537017
22907 1 0.450654 0.7567 0.561367
22908 1 0.478814 0.0590745 0.56172
22909 1 0.492975 0.20854 0.537507
22915 1 0.492975 0.708537 0.537507
23390 3 0.014462 0.6531 0.585299
23392 1 0.0426778 0.98614 0.585356
23393 3 0.0285356 0.315403 0.609671
23394 1 0.0570278 0.646706 0.60962
23396 3 0.014462 0.153101 0.585299
23398 1 0.0426778 0.48614 0.585356
23399 3 0.0285356 0.815403 0.609671
23400 1 0.0570278 0.146706 0.60962
23401 1 0.0710382 0.31762 0.58528
23402 1 0.0991641 0.649853 0.585265
23403 1 0.0851369 0.979094 0.609628
23404 1 0.127285 0.982093 0.585261
23405 1 0.113243 0.31118 0.609627
23407 1 0.0710382 0.81762 0.58528
23408 1 0.0991641 0.149853 0.585265
23409 1 0.0851369 0.479094 0.609628
23410 1 0.127285 0.482093 0.585261
23411 1 0.113243 0.81118 0.609627
23406 1 0.141354 0.643053 0.609622
23412 1 0.141354 0.143053 0.609622
23413 1 0.15541 0.314217 0.585251
23414 1 0.183535 0.6461 0.58524
23415 1 0.169482 0.97468 0.60961
23419 1 0.15541 0.814217 0.585251
23420 1 0.183535 0.1461 0.58524
23421 1 0.169482 0.47468 0.60961
23416 1 0.211663 0.977664 0.585229
23417 1 0.197614 0.305954 0.609598
23418 1 0.225748 0.636793 0.609588
23422 1 0.211663 0.477664 0.585229
23423 1 0.197614 0.805954 0.609598
23424 1 0.225748 0.136793 0.609588
23425 1 0.239794 0.30881 0.585219
23427 1 0.253884 0.967066 0.609582
23431 1 0.239794 0.80881 0.585219
23433 1 0.253884 0.467066 0.609582
23426 1 0.267925 0.639402 0.585214
23428 1 0.296056 0.969228 0.585215
23429 1 0.282018 0.296592 0.609585
23430 1 0.31015 0.625109 0.609599
23432 1 0.267925 0.139402 0.585214
23434 1 0.296056 0.469228 0.585215
23435 1 0.282018 0.796592 0.609585
23436 1 0.31015 0.125109 0.609599
23437 1 0.324185 0.297961 0.58523
23438 1 0.352311 0.6251 0.585264
23439 1 0.338278 0.952249 0.609633
23440 1 0.380431 0.949883 0.585331
23441 1 0.366398 0.277519 0.609694
23443 1 0.324185 0.797961 0.58523
23444 1 0.352311 0.125099 0.585264
23445 1 0.338278 0.452249 0.609633
23446 1 0.380431 0.449883 0.585331
23447 1 0.366398 0.777519 0.609694
23442 1 0.39451 0.600283 0.609795
23448 1 0.39451 0.100283 0.609795
23449 1 0.408544 0.271181 0.585449
23450 1 0.436649 0.587623 0.58565
23451 1 0.422617 0.919944 0.609946
23455 1 0.408544 0.771181 0.585449
23456 1 0.436649 0.0876247 0.58565
23457 1 0.422617 0.419944 0.609946
23452 1 0.464775 0.899139 0.585901
23453 1 0.450734 0.236559 0.610127
23454 1 0.478886 0.55143 0.610252
23458 1 0.464774 0.399136 0.585901
23459 1 0.450734 0.736558 0.610128
23460 1 0.478886 0.0514321 0.610251
23461 1 0.492972 0.208648 0.586003
23467 1 0.492972 0.708652 0.586003
23942 3 0.014462 0.645464 0.634042
23944 3 0.0426091 0.977555 0.634042
23945 3 0.0285356 0.307753 0.658413
23946 3 0.0566827 0.639576 0.658413
23948 3 0.014462 0.145465 0.634042
23950 3 0.0426091 0.477554 0.634042
23951 3 0.0285356 0.807753 0.658413
23952 3 0.0566827 0.139576 0.658413
24496 3 0.0426091 0.969941 0.682784
24502 3 0.0426091 0.469941 0.682784
23953 1 0.0711218 0.309063 0.633979
23954 1 0.0991628 0.640809 0.634002
23955 1 0.0850546 0.971183 0.65834
23956 1 0.127285 0.972474 0.633992
23957 1 0.113178 0.302507 0.658359
23959 1 0.0711218 0.809063 0.633979
23960 1 0.0991628 0.140809 0.634002
23961 1 0.0850546 0.471183 0.65834
23962 1 0.127285 0.472474 0.633992
23963 1 0.113178 0.802507 0.658359
24505 1 0.0707991 0.301476 0.68277
24506 1 0.0991161 0.632806 0.682691
24508 1 0.127231 0.963869 0.682709
24511 1 0.0707991 0.801476 0.68277
24512 1 0.0991161 0.132806 0.682691
24514 1 0.127231 0.463869 0.682709
23958 1 0.141326 0.633666 0.658347
23964 1 0.141326 0.133666 0.658347
23965 1 0.155412 0.303886 0.63398
23966 1 0.183548 0.634954 0.633966
23967 1 0.169468 0.964563 0.658333
23971 1 0.155412 0.803886 0.63398
23972 1 0.183548 0.134954 0.633966
23973 1 0.169468 0.464563 0.658333
24517 1 0.155382 0.294666 0.682697
24518 1 0.183528 0.625137 0.682684
24523 1 0.155382 0.794666 0.682697
24524 1 0.183528 0.125137 0.682684
23968 1 0.211687 0.965598 0.633954
23969 1 0.197613 0.295088 0.658319
23970 1 0.225755 0.625126 0.658311
23974 1 0.211687 0.465598 0.633954
23975 1 0.197613 0.795088 0.658319
23976 1 0.225755 0.125126 0.658311
23977 1 0.239825 0.295706 0.633948
23979 1 0.253895 0.954535 0.658311
23983 1 0.239825 0.795706 0.633948
23985 1 0.253895 0.454535 0.658311
24520 1 0.211676 0.955176 0.682672
24526 1 0.211676 0.455176 0.682672
24529 1 0.239819 0.284653 0.68267
24535 1 0.239819 0.784653 0.68267
23978 1 0.267963 0.625116 0.63395
23980 1 0.296097 0.953633 0.633964
23981 1 0.282031 0.283164 0.658324
23982 1 0.310161 0.610818 0.658352
23984 1 0.267963 0.125116 0.63395
23986 1 0.296097 0.453633 0.633964
23987 1 0.282031 0.783164 0.658324
23988 1 0.310161 0.110818 0.658352
24530 1 0.267958 0.613448 0.682681
24532 1 0.29609 0.941418 0.682705
24536 1 0.267958 0.113448 0.682681
24538 1 0.29609 0.441418 0.682705
23989 1 0.324225 0.280988 0.633995
23990 1 0.352347 0.606861 0.63405
23991 1 0.338284 0.937285 0.6584
23992 1 0.38046 0.930892 0.634135
23993 1 0.3664 0.262345 0.658472
23995 1 0.324225 0.780987 0.633995
23996 1 0.352347 0.106861 0.63405
23997 1 0.338284 0.437285 0.6584
23998 1 0.38046 0.430892 0.634135
23999 1 0.3664 0.762345 0.658472
24541 1 0.324215 0.268419 0.682746
24542 1 0.352334 0.594317 0.682808
24544 1 0.380449 0.919029 0.682888
24547 1 0.324215 0.768419 0.682746
24548 1 0.352334 0.0943169 0.682808
24550 1 0.380449 0.419029 0.682888
23994 1 0.394512 0.58585 0.658569
24000 1 0.394512 0.0858498 0.658569