ITEM: TIMESTEP
39
ITEM: NUMBER OF ATOMS
2350
ITEM: BOX BOUNDS ss pp ss
-4.1263466440999998e+01 4.1554841578000001e+01
-4.1208122699999999e-01 4.5329187729999996e+00
-4.0239876534000004e+01 4.0576319157000000e+01
ITEM: ATOMS id type xs ys zs
17355 3 0.253713 0.0843836 0.0503597
17361 3 0.253713 0.584383 0.0503597
17356 3 0.295933 0.0920995 0.0253797
17357 3 0.28186 0.421728 0.0503597
17358 3 0.310007 0.759284 0.0503597
17362 3 0.295933 0.592099 0.0253797
17363 3 0.28186 0.921728 0.0503597
17364 3 0.310007 0.259284 0.0503597
16817 3 0.366301 0.437217 0.00039968
16823 3 0.366301 0.937217 0.00039968
17365 3 0.32408 0.429595 0.0253797
17366 3 0.352228 0.767263 0.0253797
17367 3 0.338154 0.0970417 0.0503597
17368 3 0.380375 0.105086 0.0253797
17369 1 0.366392 0.436165 0.0506829
17371 3 0.32408 0.929596 0.0253797
17372 3 0.352228 0.267264 0.0253797
17373 3 0.338154 0.597041 0.0503597
17374 3 0.380375 0.605086 0.0253797
17375 1 0.366392 0.936165 0.0506829
16818 3 0.394448 0.774906 0.00039968
16824 3 0.394448 0.274907 0.00039968
16827 3 0.422595 0.1127 0.00039968
16833 3 0.422595 0.6127 0.00039968
17370 1 0.394557 0.773684 0.0507105
17376 1 0.394557 0.273684 0.0507105
17377 3 0.408522 0.443041 0.0253797
17378 3 0.436669 0.781104 0.0253797
17379 1 0.422635 0.111516 0.05058
17383 3 0.408522 0.943041 0.0253797
17384 3 0.436669 0.281104 0.0253797
17385 1 0.422635 0.611516 0.05058
16829 3 0.450743 0.450572 0.00039968
16830 3 0.47889 0.788497 0.00039968
16835 3 0.450743 0.950573 0.00039968
16836 3 0.47889 0.288497 0.00039968
17380 1 0.464817 0.119279 0.0254222
17381 1 0.450754 0.449814 0.0505763
17382 1 0.478889 0.788266 0.050589
17386 1 0.464817 0.619279 0.0254222
17387 1 0.450754 0.949814 0.0505763
17388 1 0.478889 0.288266 0.050589
17389 1 0.49296 0.457478 0.0254272
17395 1 0.49296 0.957478 0.0254272
18445 3 0.155198 0.398149 0.1253
18446 3 0.183345 0.734871 0.1253
18451 3 0.155198 0.898149 0.1253
18452 3 0.183345 0.234871 0.1253
17896 3 0.211492 0.0766478 0.0753397
17897 3 0.197418 0.40585 0.10032
17898 3 0.225565 0.742918 0.10032
17902 3 0.211492 0.576647 0.0753397
17903 3 0.197418 0.905851 0.10032
17904 3 0.225565 0.242918 0.10032
17905 3 0.239639 0.41376 0.0753397
17907 1 0.2539 0.08084 0.100555
17911 3 0.239639 0.913761 0.0753397
17913 1 0.2539 0.58084 0.100555
18448 1 0.211452 0.0708662 0.125383
18454 1 0.211452 0.570866 0.125383
18457 1 0.239778 0.409378 0.125587
18463 1 0.239778 0.909378 0.125587
17906 3 0.267786 0.751112 0.0753397
17908 1 0.296021 0.0894288 0.075639
17909 1 0.282044 0.418505 0.100671
17910 1 0.310142 0.756389 0.100571
17912 3 0.267786 0.251113 0.0753397
17914 1 0.296021 0.589429 0.075639
17915 1 0.282044 0.918505 0.100671
17916 1 0.310142 0.256389 0.100571
18458 1 0.267898 0.747206 0.125549
18460 1 0.296055 0.0852961 0.125552
18464 1 0.267898 0.247206 0.125549
18466 1 0.296055 0.585296 0.125552
17917 1 0.324226 0.427131 0.0756324
17918 1 0.352321 0.765189 0.0755795
17919 1 0.338263 0.0945574 0.10054
17920 1 0.380467 0.10368 0.0756201
17921 1 0.366385 0.432889 0.100553
17923 1 0.324226 0.927131 0.0756324
17924 1 0.352321 0.265189 0.0755795
17925 1 0.338263 0.594557 0.10054
17926 1 0.380467 0.60368 0.0756201
17927 1 0.366385 0.932889 0.100553
18469 1 0.324187 0.423413 0.125521
18470 1 0.352314 0.76187 0.12551
18472 1 0.380447 0.100644 0.125514
18475 1 0.324187 0.923413 0.125521
18476 1 0.352314 0.26187 0.12551
18478 1 0.380447 0.600644 0.125514
17922 1 0.394529 0.771555 0.100563
17928 1 0.394529 0.271555 0.100563
17929 1 0.408601 0.44194 0.0755767
17930 1 0.436709 0.780189 0.0755288
17931 1 0.422656 0.110249 0.100538
17935 1 0.408601 0.94194 0.0755767
17936 1 0.436709 0.280189 0.0755288
17937 1 0.422656 0.610249 0.100538
18481 1 0.408583 0.439675 0.125515
18482 1 0.436711 0.778831 0.125506
18487 1 0.408583 0.939675 0.125515
18488 1 0.436711 0.278831 0.125506
17932 1 0.464828 0.118776 0.0755238
17933 1 0.450773 0.449021 0.100518
17934 1 0.478895 0.787995 0.100516
17938 1 0.464828 0.618776 0.0755238
17939 1 0.450773 0.949021 0.100518
17940 1 0.478895 0.287995 0.100516
18484 1 0.464835 0.11813 0.125502
18490 1 0.464835 0.61813 0.125502
17941 1 0.492956 0.457507 0.0755288
17947 1 0.492956 0.957507 0.0755288
18493 1 0.492957 0.457544 0.125503
18499 1 0.492957 0.957544 0.125503
18988 3 0.127051 0.055981 0.17526
18994 3 0.127051 0.555981 0.17526
18438 3 0.141124 0.727124 0.15028
18444 3 0.141124 0.227124 0.15028
18447 3 0.169271 0.0637229 0.15028
18453 3 0.169271 0.563722 0.15028
18997 3 0.155198 0.392426 0.17526
18998 1 0.183531 0.729403 0.175548
19003 3 0.155198 0.892427 0.17526
19004 1 0.183531 0.229403 0.175548
18449 1 0.197605 0.401216 0.150549
18450 1 0.22568 0.737886 0.1505
18455 1 0.197605 0.901216 0.150549
18456 1 0.22568 0.237886 0.1505
18459 1 0.253798 0.0756035 0.150483
18465 1 0.253798 0.575604 0.150483
19000 1 0.211614 0.0665589 0.17548
19006 1 0.211614 0.566559 0.17548
19009 1 0.239725 0.403814 0.175433
19015 1 0.239725 0.903814 0.175433
18461 1 0.281948 0.413581 0.150485
18462 1 0.310093 0.751877 0.150477
18467 1 0.281948 0.913581 0.150485
18468 1 0.310093 0.251877 0.150477
19010 1 0.267854 0.74162 0.17542
19012 1 0.295994 0.0798257 0.175416
19016 1 0.267854 0.24162 0.17542
19018 1 0.295994 0.579826 0.175416
18471 1 0.33823 0.0903897 0.150467
18473 1 0.366366 0.429275 0.150471
18477 1 0.33823 0.59039 0.150467
18479 1 0.366366 0.929275 0.150471
19021 1 0.324137 0.41842 0.175418
19022 1 0.352278 0.757413 0.175422
19024 1 0.380418 0.0968397 0.175434
19027 1 0.324137 0.91842 0.175418
19028 1 0.352278 0.257413 0.175422
19030 1 0.380418 0.59684 0.175434
18474 1 0.394503 0.76853 0.15048
18480 1 0.394503 0.26853 0.15048
18483 1 0.422638 0.108054 0.150484
18489 1 0.422638 0.608054 0.150484
19033 1 0.408558 0.436663 0.175447
19034 1 0.436695 0.776799 0.175458
19039 1 0.408558 0.936663 0.175447
19040 1 0.436695 0.276799 0.175458
18485 1 0.450769 0.44777 0.150486
18486 1 0.478896 0.787623 0.150488
18491 1 0.450769 0.94777 0.150486
18492 1 0.478896 0.287623 0.150488
19036 1 0.464829 0.11715 0.175465
19042 1 0.464829 0.61715 0.175465
19045 1 0.492961 0.457619 0.175469
19051 1 0.492961 0.957619 0.175469
18987 3 0.0848298 0.0487418 0.20024
18989 3 0.112977 0.384744 0.20024
18993 3 0.0848298 0.548741 0.20024
18995 3 0.112977 0.884744 0.20024
19537 3 0.0707563 0.377642 0.22522
19538 3 0.0989034 0.713442 0.22522
19540 1 0.12725 0.0502257 0.22547
19543 3 0.0707563 0.877642 0.22522
19544 3 0.0989034 0.213443 0.22522
19546 1 0.12725 0.550226 0.22547
18990 1 0.14109 0.720638 0.200355
18996 1 0.14109 0.220638 0.200355
18999 1 0.16932 0.0576463 0.200395
19005 1 0.16932 0.557646 0.200395
19549 1 0.155326 0.386094 0.225399
19550 1 0.183405 0.722568 0.225327
19555 1 0.155326 0.886094 0.225399
19556 1 0.183405 0.222568 0.225327
19001 1 0.197478 0.394783 0.200412
19002 1 0.225634 0.731946 0.200393
19007 1 0.197478 0.894783 0.200412
19008 1 0.225634 0.231946 0.200393
19011 1 0.253763 0.0694467 0.200365
19017 1 0.253763 0.569447 0.200365
19552 1 0.211543 0.0596693 0.225328
19558 1 0.211543 0.559669 0.225328
19561 1 0.239675 0.397009 0.225312
19567 1 0.239675 0.897009 0.225312
19013 1 0.2819 0.407451 0.200357
19014 1 0.31004 0.745973 0.200358
19019 1 0.2819 0.907451 0.200357
19020 1 0.31004 0.245973 0.200358
19562 1 0.267807 0.734789 0.2253
19564 1 0.295943 0.0731301 0.225297
19568 1 0.267807 0.234789 0.2253
19570 1 0.295943 0.57313 0.225297
19023 1 0.338183 0.0850017 0.200365
19025 1 0.366326 0.424549 0.200379
19029 1 0.338183 0.585002 0.200365
19031 1 0.366326 0.924549 0.200379
19573 1 0.324083 0.41206 0.225302
19574 1 0.352228 0.751623 0.225315
19576 1 0.380375 0.0918339 0.225336
19579 1 0.324083 0.91206 0.225302
19580 1 0.352228 0.251623 0.225315
19582 1 0.380375 0.591834 0.225336
19026 1 0.394471 0.76461 0.200398
19032 1 0.394471 0.26461 0.200398
19035 1 0.422614 0.105132 0.200417
19041 1 0.422614 0.605132 0.200417
19585 1 0.408524 0.432662 0.225363
19586 1 0.436673 0.774022 0.225388
19591 1 0.408524 0.932662 0.225363
19592 1 0.436673 0.274022 0.225388
19037 1 0.450756 0.445998 0.200433
19038 1 0.478895 0.787085 0.200443
19043 1 0.450756 0.945998 0.200433
19044 1 0.478895 0.287085 0.200443
19588 1 0.464821 0.115762 0.225406
19594 1 0.464821 0.615762 0.225406
19597 1 0.492967 0.457711 0.225414
19603 1 0.492967 0.957711 0.225414
19530 3 0.0566827 0.706526 0.2502
19536 3 0.0566827 0.206526 0.2502
20080 3 0.0426091 0.0354213 0.27518
20082 3 0.0566827 0.699455 0.30016
20086 3 0.0426091 0.535421 0.27518
20088 3 0.0566827 0.199455 0.30016
19539 3 0.0848298 0.0421057 0.2502
19541 1 0.113232 0.378146 0.250442
19545 3 0.0848298 0.542105 0.2502
19547 1 0.113232 0.878146 0.250442
20089 3 0.0707563 0.370765 0.27518
20090 1 0.0992359 0.706063 0.275284
20091 1 0.0851421 0.0339835 0.30021
20092 1 0.12727 0.0421039 0.275308
20093 1 0.113217 0.369847 0.300237
20095 3 0.0707563 0.870766 0.27518
20096 1 0.0992359 0.206063 0.275284
20097 1 0.0851421 0.533983 0.30021
20098 1 0.12727 0.542104 0.275308
20099 1 0.113217 0.869847 0.300237
19542 1 0.14131 0.714361 0.250372
19548 1 0.14131 0.214361 0.250372
19551 1 0.169393 0.0505391 0.250311
19557 1 0.169393 0.550539 0.250311
20094 1 0.141301 0.705919 0.300246
20100 1 0.141301 0.205919 0.300246
20101 1 0.15536 0.37828 0.275291
20102 1 0.18344 0.71466 0.275248
20103 1 0.169381 0.0420878 0.300223
20107 1 0.15536 0.87828 0.275291
20108 1 0.18344 0.21466 0.275248
20109 1 0.169381 0.542088 0.300223
19553 1 0.197485 0.38715 0.250273
19554 1 0.225598 0.724265 0.250259
19559 1 0.197485 0.88715 0.250273
19560 1 0.225598 0.224265 0.250259
19563 1 0.25372 0.0618311 0.250247
19569 1 0.25372 0.561831 0.250247
20104 1 0.211534 0.0514006 0.275219
20105 1 0.197472 0.378525 0.300193
20106 1 0.225567 0.715371 0.300165
20110 1 0.211534 0.551401 0.275219
20111 1 0.197472 0.878525 0.300193
20112 1 0.225567 0.215371 0.300165
20113 1 0.23964 0.388644 0.2752
20115 1 0.253671 0.0527237 0.300142
20119 1 0.23964 0.888644 0.2752
20121 1 0.253671 0.552724 0.300142
19565 1 0.281847 0.399923 0.250238
19566 1 0.309981 0.738643 0.250237
19571 1 0.281847 0.899923 0.250238
19572 1 0.309981 0.238643 0.250237
20114 1 0.267756 0.726417 0.275185
20116 1 0.29588 0.064818 0.275176
20117 1 0.281783 0.390696 0.300125
20118 1 0.309905 0.729423 0.300116
20120 1 0.267756 0.226417 0.275185
20122 1 0.29588 0.564818 0.275176
20123 1 0.281783 0.890696 0.300125
20124 1 0.309905 0.229423 0.300116
19575 1 0.338123 0.0780733 0.250246
19577 1 0.36627 0.418289 0.250266
19581 1 0.338123 0.578073 0.250246
19583 1 0.36627 0.918289 0.250266
20135 1 0.366187 0.909798 0.300134
20134 1 0.38031 0.585008 0.275217
20133 1 0.338039 0.569065 0.300118
20125 1 0.324014 0.403973 0.275177
20126 1 0.352157 0.744005 0.275191
20127 1 0.338039 0.0690646 0.300118
20128 1 0.38031 0.0850083 0.275217
20129 1 0.366187 0.409798 0.300134
20131 1 0.324014 0.903973 0.275177
20132 1 0.352157 0.244005 0.275191
20145 1 0.422519 0.595088 0.300211
20144 1 0.436636 0.269973 0.275293
20143 1 0.40847 0.927019 0.275254
19578 1 0.394423 0.759305 0.250296
20139 1 0.422519 0.0950879 0.300211
19584 1 0.394423 0.259305 0.250296
20138 1 0.436636 0.769973 0.275293
20137 1 0.40847 0.427019 0.275254
19587 1 0.422579 0.10107 0.250329
20136 1 0.394347 0.251781 0.300167
19593 1 0.422579 0.60107 0.250329
20130 1 0.394347 0.751781 0.300167
20148 1 0.478882 0.284988 0.300281
20147 1 0.450699 0.939601 0.300254
20146 1 0.464804 0.613674 0.275324
20142 1 0.478882 0.784988 0.300281
20141 1 0.450699 0.4396 0.300254
20140 1 0.464804 0.113674 0.275324
19589 1 0.450735 0.443463 0.250358
19590 1 0.478891 0.786271 0.250375
19595 1 0.450735 0.943463 0.250358
19596 1 0.478891 0.286271 0.250375
20149 1 0.492972 0.457791 0.275335
20155 1 0.492972 0.957791 0.275335
21190 3 0.0426091 0.520468 0.3751
21188 3 0.014462 0.185992 0.3751
21184 3 0.0426091 0.0204689 0.3751
21182 3 0.014462 0.685992 0.3751
20640 3 0.0566827 0.19179 0.35012
20639 3 0.0285356 0.857041 0.35012
20638 3 0.0426091 0.528203 0.32514
20634 3 0.0566827 0.69179 0.35012
20633 3 0.0285356 0.357041 0.35012
20632 3 0.0426091 0.028204 0.32514
21202 1 0.12717 0.52449 0.375089
21200 1 0.09908 0.189403 0.375065
21199 1 0.0710945 0.854791 0.375121
21196 1 0.12717 0.0244905 0.375089
21194 1 0.09908 0.689403 0.375065
21193 1 0.0710946 0.354791 0.375121
20651 1 0.1131 0.861624 0.350117
20650 1 0.127208 0.533656 0.32519
20649 1 0.0849862 0.526559 0.350085
20648 1 0.0991205 0.198113 0.325162
20647 1 0.0708374 0.863567 0.325052
20645 1 0.1131 0.361624 0.350117
20644 1 0.127208 0.0336563 0.32519
20643 1 0.0849862 0.026559 0.350085
20642 1 0.0991205 0.698113 0.325162
20641 1 0.0708374 0.363567 0.325052
21212 1 0.183367 0.195458 0.375087
21211 1 0.155267 0.859864 0.375096
21206 1 0.183367 0.695458 0.375087
21205 1 0.155267 0.359864 0.375096
20661 1 0.169328 0.532736 0.350134
20660 1 0.183402 0.205621 0.325167
20659 1 0.155305 0.869512 0.325187
20655 1 0.169328 0.0327359 0.350134
20654 1 0.183402 0.705621 0.325167
20653 1 0.155305 0.369512 0.325187
20652 1 0.141221 0.197017 0.35014
20646 1 0.141221 0.697017 0.35014
21223 1 0.239553 0.867638 0.375038
21217 1 0.239553 0.367638 0.375038
21214 1 0.211461 0.53135 0.375065
21208 1 0.211461 0.0313505 0.375065
20673 1 0.253617 0.542017 0.350058
20671 1 0.239592 0.878942 0.325111
20667 1 0.253617 0.0420166 0.350058
20665 1 0.239592 0.378943 0.325111
20664 1 0.225522 0.205137 0.350086
20663 1 0.197427 0.868742 0.350114
20662 1 0.211496 0.542059 0.325139
20658 1 0.225522 0.705137 0.350086
20657 1 0.197427 0.368742 0.350114
20656 1 0.211496 0.0420594 0.325139
21226 1 0.295736 0.541964 0.374976
21224 1 0.267643 0.204444 0.375007
21220 1 0.295736 0.0419639 0.374976
21218 1 0.267643 0.704444 0.375007
20676 1 0.309819 0.217876 0.350006
20675 1 0.281715 0.879536 0.350029
20674 1 0.295803 0.554565 0.325065
20672 1 0.267694 0.216393 0.325085
20670 1 0.309819 0.717876 0.350006
20669 1 0.281715 0.379536 0.350029
20668 1 0.295803 0.0545651 0.325065
20666 1 0.267694 0.716393 0.325085
21238 1 0.380076 0.561609 0.374916
21236 1 0.351944 0.220136 0.374925
21235 1 0.323834 0.880416 0.374947
21232 1 0.380076 0.0616097 0.374916
21230 1 0.351944 0.720136 0.374925
21229 1 0.323834 0.380417 0.374947
20687 1 0.366071 0.898077 0.349988
20686 1 0.380211 0.575402 0.325074
20685 1 0.337936 0.557276 0.34999
20684 1 0.352058 0.233815 0.325055
20683 1 0.323924 0.893628 0.325054
20681 1 0.366071 0.398077 0.349988
20680 1 0.380211 0.0754016 0.325074
20679 1 0.337936 0.0572762 0.34999
20678 1 0.352058 0.733815 0.325055
20677 1 0.323924 0.393628 0.325054
21248 1 0.436449 0.252873 0.374975
21247 1 0.40824 0.905541 0.37493
21242 1 0.436449 0.752874 0.374975
21241 1 0.40824 0.405541 0.37493
20697 1 0.422417 0.585654 0.350049
20696 1 0.436572 0.263695 0.325163
20695 1 0.408383 0.918656 0.325112
20691 1 0.422417 0.0856533 0.350049
20690 1 0.436572 0.763695 0.325163
20689 1 0.408383 0.418656 0.325112
20688 1 0.394229 0.240717 0.350007
20682 1 0.394229 0.740717 0.350007
21250 1 0.464704 0.604111 0.375039
21244 1 0.464704 0.104112 0.375039
20700 1 0.47886 0.282745 0.350148
20699 1 0.450631 0.933147 0.350107
20698 1 0.464772 0.610318 0.325208
20694 1 0.47886 0.782744 0.350148
20693 1 0.450631 0.433147 0.350107
20692 1 0.464772 0.110319 0.325208
21259 1 0.492978 0.95802 0.375067
21253 1 0.492978 0.458021 0.375067
20707 1 0.492975 0.957899 0.325225
20701 1 0.492975 0.4579 0.325225
21742 1 0.0426607 0.51328 0.424983
21740 3 0.014462 0.178279 0.42506
21736 1 0.0426607 0.0132804 0.424983
21734 3 0.014462 0.678279 0.42506
21192 1 0.057005 0.182954 0.400112
21191 3 0.0285356 0.849291 0.40008
21186 1 0.057005 0.682954 0.400112
21185 3 0.0285356 0.349291 0.40008
21754 1 0.127186 0.514659 0.425041
21752 1 0.0990965 0.180319 0.42505
21751 1 0.0710021 0.84626 0.425052
21748 1 0.127186 0.0146591 0.425041
21746 1 0.0990965 0.680319 0.42505
21745 1 0.0710021 0.34626 0.425052
21203 1 0.113144 0.852205 0.400063
21201 1 0.0850789 0.517611 0.400078
21197 1 0.113144 0.352205 0.400063
21195 1 0.0850789 0.0176114 0.400078
21764 1 0.183378 0.184134 0.425025
21763 1 0.155282 0.849292 0.425036
21758 1 0.183378 0.684134 0.425025
21757 1 0.155282 0.349292 0.425036
21213 1 0.16932 0.522261 0.40006
21207 1 0.16932 0.0222607 0.40006
21204 1 0.141224 0.18711 0.400063
21198 1 0.141224 0.68711 0.400063
21775 1 0.239561 0.854552 0.424984
21769 1 0.239561 0.354552 0.424984
21766 1 0.211471 0.519203 0.425008
21760 1 0.211471 0.0192031 0.425008
21225 1 0.253592 0.529413 0.399994
21219 1 0.253592 0.0294129 0.399994
21216 1 0.225505 0.19333 0.400022
21215 1 0.197414 0.857647 0.400045
21210 1 0.225505 0.69333 0.400022
21209 1 0.197414 0.357647 0.400045
21778 1 0.295725 0.526601 0.424922
21776 1 0.267646 0.190298 0.424955
21772 1 0.295725 0.0266008 0.424922
21770 1 0.267646 0.690298 0.424955
21228 1 0.309763 0.20346 0.399927
21227 1 0.281678 0.866053 0.399961
21222 1 0.309763 0.703459 0.399926
21221 1 0.281678 0.366053 0.399961
21790 1 0.379955 0.541842 0.424803
21788 1 0.351876 0.201907 0.424845
21787 1 0.323801 0.863686 0.424885
21784 1 0.379955 0.0418419 0.424803
21782 1 0.351876 0.701908 0.424845
21781 1 0.323801 0.363686 0.424885
21239 1 0.36595 0.881853 0.399861
21237 1 0.337851 0.541911 0.399892
21233 1 0.36595 0.381852 0.399861
21231 1 0.337851 0.0419113 0.399892
21800 1 0.436199 0.232193 0.424714
21799 1 0.408052 0.884485 0.424759
21794 1 0.436199 0.732193 0.424714
21793 1 0.408052 0.384487 0.424759
21249 1 0.422235 0.569553 0.399837
21243 1 0.422235 0.0695519 0.399837
21240 1 0.394071 0.223986 0.39984
21234 1 0.394071 0.723986 0.39984
21802 1 0.46451 0.589763 0.424754
21796 1 0.46451 0.0897648 0.424754
21252 1 0.478806 0.278012 0.39995
21251 1 0.450478 0.92062 0.39988
21246 1 0.478806 0.778011 0.39995
21245 1 0.450478 0.420619 0.39988
21811 1 0.49298 0.958141 0.424843
21805 1 0.49298 0.458143 0.424843
21744 1 0.0569975 0.174757 0.450022
21743 3 0.0285356 0.841223 0.45004
21741 3 0.00038843 0.507446 0.45004
21738 1 0.0569975 0.674757 0.450022
21737 3 0.0285356 0.341223 0.45004
21735 3 0.00038843 0.00744667 0.45004
22286 3 0.014462 0.67034 0.47502
22287 3 0.00038843 0.999676 0.5
22288 1 0.0429045 0.00328187 0.475071
22289 3 0.0285356 0.332989 0.5
22290 1 0.0570755 0.665608 0.499995
22292 3 0.014462 0.17034 0.47502
22293 3 0.00038843 0.499675 0.5
22294 1 0.0429045 0.503282 0.475071
22295 3 0.0285356 0.83299 0.5
22296 1 0.0570755 0.165607 0.499995
21755 1 0.113151 0.842472 0.450021
21753 1 0.0850476 0.508517 0.450016
21749 1 0.113151 0.342472 0.450021
21747 1 0.0850476 0.0085169 0.450016
22297 1 0.0710264 0.33691 0.474999
22298 1 0.0991258 0.670504 0.474999
22299 1 0.0851092 0.99879 0.499989
22300 1 0.12722 0.00422709 0.474995
22301 1 0.113194 0.332169 0.49998
22303 1 0.0710264 0.83691 0.474999
22304 1 0.0991258 0.170504 0.474999
22305 1 0.0851092 0.49879 0.499989
22306 1 0.12722 0.504227 0.474995
22307 1 0.113194 0.832169 0.49998
21765 1 0.169349 0.510914 0.450005
21759 1 0.169349 0.0109138 0.450005
21756 1 0.141249 0.176616 0.450015
21750 1 0.141249 0.676616 0.450015
22302 1 0.141297 0.66559 0.499969
22308 1 0.141297 0.16559 0.499969
22309 1 0.155324 0.338053 0.474987
22310 1 0.183428 0.67194 0.474975
22311 1 0.169406 0.998983 0.499956
22315 1 0.155324 0.838053 0.474987
22316 1 0.183428 0.17194 0.474975
22317 1 0.169406 0.498983 0.499956
21777 1 0.253633 0.514855 0.44995
21771 1 0.253633 0.0148554 0.44995
21768 1 0.225543 0.179995 0.449974
21767 1 0.197448 0.845371 0.449992
21762 1 0.225543 0.679995 0.449974
21761 1 0.197448 0.345371 0.449992
22312 1 0.21153 0.00588633 0.47496
22313 1 0.197517 0.332327 0.499943
22314 1 0.225626 0.665615 0.499929
22318 1 0.21153 0.505886 0.47496
22319 1 0.197517 0.832327 0.499943
22320 1 0.225626 0.165615 0.499929
22321 1 0.23963 0.339908 0.474942
22323 1 0.253734 0.998845 0.499913
22327 1 0.23963 0.839908 0.474942
22329 1 0.253734 0.498845 0.499913
21780 1 0.309794 0.185739 0.449891
21779 1 0.281717 0.850056 0.449923
21774 1 0.309794 0.685739 0.449891
21773 1 0.281717 0.350056 0.449923
22322 1 0.267725 0.674066 0.474921
22324 1 0.295813 0.00840377 0.474897
22325 1 0.281837 0.332013 0.499897
22326 1 0.309935 0.66507 0.499881
22328 1 0.267725 0.174066 0.474921
22330 1 0.295813 0.508404 0.474897
22331 1 0.281837 0.832013 0.499897
22332 1 0.309935 0.16507 0.499881
21791 1 0.36592 0.859699 0.449813
21789 1 0.337862 0.522147 0.449855
21785 1 0.36592 0.359699 0.449813
21783 1 0.337862 0.0221468 0.449855
22333 1 0.323892 0.343025 0.474872
22334 1 0.351959 0.67813 0.474844
22335 1 0.338025 0.997995 0.499868
22336 1 0.380002 0.0140432 0.474811
22337 1 0.366103 0.330694 0.49986
22339 1 0.323892 0.843025 0.474872
22340 1 0.351959 0.178131 0.474844
22341 1 0.338025 0.497995 0.499868
22342 1 0.380002 0.514042 0.474811
22343 1 0.366103 0.830695 0.49986
21801 1 0.422012 0.541764 0.449687
21795 1 0.422012 0.0417644 0.449687
21792 1 0.393968 0.199119 0.449761
21786 1 0.393968 0.699117 0.449761
22338 1 0.394162 0.662871 0.499858
22344 1 0.394162 0.16287 0.499858
22345 1 0.408004 0.351327 0.474766
22346 1 0.435966 0.691264 0.4747
22347 1 0.422195 0.993654 0.499875
22351 1 0.408004 0.851328 0.474766
22352 1 0.435966 0.191262 0.4747
22353 1 0.422195 0.493656 0.499875
21804 1 0.47861 0.262669 0.449642
21803 1 0.450125 0.892193 0.449565
21798 1 0.47861 0.762668 0.449642
21797 1 0.450125 0.392191 0.449565
22348 1 0.464017 0.0417101 0.474541
22349 1 0.450275 0.320692 0.499944
22363 1 0.492981 0.958282 0.474595
22354 1 0.464017 0.54171 0.474541
22355 1 0.450275 0.820691 0.499944
22357 1 0.492981 0.458282 0.474595
22838 3 0.014462 0.662327 0.52498
22839 3 0.00038843 0.991911 0.54996
22840 1 0.0429115 0.994677 0.524918
22841 3 0.0285356 0.324763 0.54996
22842 1 0.0570167 0.657015 0.549964
22844 3 0.014462 0.162328 0.52498
22845 3 0.00038843 0.491911 0.54996
22846 1 0.0429115 0.494677 0.524918
22847 3 0.0285356 0.824763 0.54996
22848 1 0.0570167 0.157015 0.549964
22849 1 0.0710438 0.327703 0.524986
22850 1 0.0991537 0.660634 0.52497
22851 1 0.0850888 0.989511 0.549959
22852 1 0.12726 0.993605 0.524953
22853 1 0.113216 0.322107 0.549935
22855 1 0.0710438 0.827703 0.524986
22856 1 0.0991537 0.160634 0.52497
22857 1 0.0850888 0.489511 0.549959
22858 1 0.12726 0.493605 0.524953
22859 1 0.113216 0.822107 0.549935
22854 1 0.141339 0.65466 0.549916
22860 1 0.141339 0.15466 0.549916
22861 1 0.155378 0.326552 0.524936
22862 1 0.183496 0.659386 0.524922
22863 1 0.169466 0.987075 0.549899
22867 1 0.155378 0.826552 0.524936
22868 1 0.183496 0.159386 0.524922
22869 1 0.169466 0.487075 0.549899
22864 1 0.211616 0.992059 0.52491
22865 1 0.197594 0.319268 0.549887
22866 1 0.225721 0.651159 0.549877
22870 1 0.211616 0.492059 0.52491
22871 1 0.197594 0.819268 0.549887
22872 1 0.225721 0.151159 0.549877
22873 1 0.239734 0.324532 0.524898
22875 1 0.253847 0.982683 0.549869
22879 1 0.239734 0.824532 0.524898
22881 1 0.253847 0.482683 0.549869
22874 1 0.26785 0.656758 0.524886
22876 1 0.295965 0.988615 0.524878
22877 1 0.281972 0.313704 0.549865
22878 1 0.310095 0.643988 0.549868
22880 1 0.26785 0.156758 0.524886
22882 1 0.295965 0.488615 0.524878
22883 1 0.281972 0.813704 0.549865
22884 1 0.310095 0.143988 0.549868
22885 1 0.324076 0.319927 0.524875
22886 1 0.352183 0.65039 0.524882
22887 1 0.338216 0.973181 0.549883
22888 1 0.380286 0.979336 0.524906
22889 1 0.366334 0.300664 0.549917
22891 1 0.324076 0.819928 0.524875
22892 1 0.352183 0.15039 0.524882
22893 1 0.338216 0.473181 0.549883
22894 1 0.380286 0.479337 0.524906
22895 1 0.366334 0.800664 0.549917
22890 1 0.394448 0.625302 0.549989
22896 1 0.394448 0.125303 0.549989
22897 1 0.408386 0.305358 0.524967
22898 1 0.436507 0.625151 0.5251
22899 1 0.422559 0.945096 0.550128
22903 1 0.408386 0.805356 0.524967
22904 1 0.436507 0.125153 0.5251
22905 1 0.422559 0.445095 0.550128
22900 1 0.464646 0.929495 0.525456
22901 1 0.450665 0.256669 0.550416
22902 1 0.478822 0.558956 0.55078
22906 1 0.464646 0.429491 0.525456
22907 1 0.450665 0.756669 0.550416
22908 1 0.478822 0.0589577 0.550779
22909 1 0.49298 0.208402 0.52596
22915 1 0.49298 0.708406 0.52596
22356 1 0.478544 0.125003 0.500224
22350 1 0.478545 0.625002 0.500224
23390 3 0.014462 0.654402 0.57494
23392 1 0.0426814 0.987456 0.575002
23393 3 0.0285356 0.316716 0.59992
23394 1 0.0570343 0.647987 0.599877
23396 3 0.014462 0.154402 0.57494
23398 1 0.0426814 0.487456 0.575002
23399 3 0.0285356 0.816716 0.59992
23400 1 0.0570343 0.147987 0.599877
23942 3 0.014462 0.646713 0.6249
23944 3 0.0426091 0.97887 0.6249
23948 3 0.014462 0.146714 0.6249
23950 3 0.0426091 0.478869 0.6249
23401 1 0.0710443 0.318898 0.574929
23402 1 0.0991705 0.651057 0.574912
23403 1 0.0851441 0.980285 0.599892
23404 1 0.127294 0.983248 0.574896
23405 1 0.11325 0.312278 0.599881
23407 1 0.0710443 0.818898 0.574929
23408 1 0.0991705 0.151057 0.574912
23409 1 0.0851441 0.480285 0.599892
23410 1 0.127294 0.483248 0.574896
23411 1 0.11325 0.812278 0.599881
23953 1 0.0711305 0.310274 0.624859
23954 1 0.0991655 0.641829 0.624884
23956 1 0.127307 0.973528 0.624833
23959 1 0.0711305 0.810274 0.624859
23960 1 0.0991655 0.141829 0.624884
23962 1 0.127307 0.473528 0.624833
23406 1 0.141373 0.644172 0.599854
23412 1 0.141373 0.144172 0.599854
23413 1 0.155425 0.315358 0.574876
23414 1 0.183559 0.647198 0.57486
23415 1 0.169512 0.975788 0.599832
23419 1 0.155425 0.815358 0.574876
23420 1 0.183559 0.147198 0.57486
23421 1 0.169512 0.475788 0.599832
23965 1 0.155455 0.304985 0.624802
23966 1 0.1836 0.635994 0.624788
23971 1 0.155455 0.804985 0.624802
23972 1 0.1836 0.135994 0.624788
23416 1 0.211692 0.978673 0.574851
23417 1 0.197651 0.306985 0.599821
23418 1 0.225788 0.637693 0.599818
23422 1 0.211692 0.478673 0.574851
23423 1 0.197651 0.806985 0.599821
23424 1 0.225788 0.137693 0.599818
23425 1 0.239825 0.309702 0.574846
23427 1 0.253922 0.967831 0.599821
23431 1 0.239825 0.809702 0.574846
23433 1 0.253922 0.467831 0.599821
23968 1 0.211739 0.966503 0.624787
23974 1 0.211739 0.466503 0.624787
23977 1 0.239874 0.296452 0.624792
23983 1 0.239874 0.796452 0.624792
23426 1 0.267956 0.640179 0.574845
23428 1 0.296085 0.969881 0.574851
23429 1 0.282053 0.297232 0.59983
23430 1 0.310181 0.625629 0.59985
23432 1 0.267956 0.140179 0.574845
23434 1 0.296085 0.469881 0.574851
23435 1 0.282053 0.797232 0.599829
23436 1 0.310181 0.125629 0.59985
23978 1 0.268004 0.625728 0.624804
23980 1 0.296131 0.954132 0.624825
23984 1 0.268004 0.125728 0.624804
23986 1 0.296131 0.454132 0.624825
23437 1 0.324212 0.298476 0.57487
23438 1 0.352334 0.62547 0.574909
23439 1 0.338304 0.952635 0.599888
23440 1 0.380451 0.950113 0.574979
23441 1 0.36642 0.277767 0.599954
23443 1 0.324212 0.798476 0.57487
23444 1 0.352334 0.125471 0.574909
23445 1 0.338304 0.452635 0.599888
23446 1 0.380451 0.450112 0.574979
23447 1 0.36642 0.777767 0.599954
23989 1 0.324254 0.281373 0.624861
23990 1 0.35237 0.607131 0.62492
23992 1 0.380479 0.931048 0.625008
23995 1 0.324254 0.781373 0.624861
23996 1 0.35237 0.107131 0.62492
23998 1 0.380479 0.431049 0.625008
23442 1 0.394529 0.600409 0.600058
23448 1 0.394529 0.100409 0.600058
23449 1 0.40856 0.271285 0.575101
23450 1 0.436663 0.587615 0.575309
23451 1 0.422631 0.919963 0.600213
23455 1 0.40856 0.771286 0.575101
23456 1 0.436662 0.0876129 0.575309
23457 1 0.422631 0.419963 0.600213
24001 1 0.408584 0.252841 0.625131
24002 1 0.436696 0.572567 0.625276
24007 1 0.408584 0.75284 0.625131
24008 1 0.436696 0.0725687 0.625276
23452 1 0.464785 0.899033 0.575567
23453 1 0.450746 0.23648 0.6004
23454 1 0.478895 0.551278 0.600528
23458 1 0.464785 0.399037 0.575567
23459 1 0.450746 0.736481 0.6004
23460 1 0.478895 0.0512759 0.600528
24004 1 0.464828 0.890868 0.625398
24010 1 0.464828 0.390866 0.625398
23461 1 0.492979 0.20848 0.575672
23467 1 0.492979 0.708475 0.575672
24013 1 0.492978 0.208585 0.625445
24019 1 0.492978 0.708588 0.625445
23945 3 0.0285356 0.308998 0.64988
23946 3 0.0566827 0.640884 0.64988
23951 3 0.0285356 0.808999 0.64988
23952 3 0.0566827 0.140885 0.64988
24496 3 0.0426091 0.971175 0.67486
24502 3 0.0426091 0.471174 0.67486
23955 1 0.0850413 0.972159 0.649875
23957 1 0.113215 0.303474 0.649808
23961 1 0.0850413 0.472159 0.649875
23963 1 0.113215 0.803474 0.649808
24505 1 0.070877 0.30269 0.674917
24506 1 0.0992106 0.633443 0.67477
24508 1 0.127358 0.96476 0.674709
24511 1 0.070877 0.80269 0.674917
24512 1 0.0992106 0.133443 0.67477
24514 1 0.127358 0.46476 0.674709
23958 1 0.141392 0.634709 0.649762
23964 1 0.141392 0.134709 0.649762
23967 1 0.169545 0.965592 0.64975
23973 1 0.169545 0.465592 0.64975
24517 1 0.155497 0.295624 0.674705
24518 1 0.183627 0.625993 0.674717
24523 1 0.155497 0.795624 0.674705
24524 1 0.183627 0.125993 0.674717
23969 1 0.197684 0.295982 0.649753
23970 1 0.225816 0.625851 0.649762
23975 1 0.197684 0.795982 0.649753
23976 1 0.225816 0.125851 0.649762
23979 1 0.253945 0.955113 0.649776
23985 1 0.253945 0.455113 0.649776
24520 1 0.211752 0.95587 0.674732
24526 1 0.211752 0.45587 0.674732
24529 1 0.239878 0.285203 0.674747
24535 1 0.239878 0.785203 0.674747
23981 1 0.282071 0.283627 0.649797
23982 1 0.310192 0.611182 0.64983
23987 1 0.282071 0.783627 0.649797
23988 1 0.310192 0.111182 0.64983
24530 1 0.268002 0.613879 0.674767
24532 1 0.296123 0.94176 0.674797
24536 1 0.268002 0.113878 0.674767
24538 1 0.296123 0.44176 0.674797
23991 1 0.338308 0.937552 0.649882
23993 1 0.36642 0.262527 0.649957
23997 1 0.338308 0.437552 0.649882
23999 1 0.36642 0.762527 0.649957
24541 1 0.324241 0.268679 0.674842
24542 1 0.352354 0.594504 0.674905
24544 1 0.380465 0.919149 0.674987
24547 1 0.324241 0.768679 0.674842
24548 1 0.352354 0.0945046 0.674905
24550 1 0.380465 0.419149 0.674987
24560 1 0.4367 0.0651713 0.675178
24559 1 0.408579 0.74264 0.675083
23994 1 0.394528 0.585943 0.650057
24000 1 0.394528 0.0859426 0.650057
24003 1 0.422639 0.907851 0.650174
24009 1 0.422639 0.407851 0.650174
24553 1 0.408579 0.242639 0.675083
24554 1 0.4367 0.565172 0.675178
24562 1 0.464835 0.387083 0.675248
24005 1 0.450764 0.228595 0.650282
24006 1 0.478904 0.548692 0.650348
24011 1 0.450764 0.728594 0.650282
24012 1 0.478904 0.0486931 0.650348