ITEM: TIMESTEP
39
ITEM: NUMBER OF ATOMS
2346
ITEM: BOX BOUNDS ss pp ss
-4.1409160050000004e+01 4.1409147969000003e+01
-4.1208122699999999e-01 4.5329187729999996e+00
-4.0071644046000003e+01 4.0744551645000001e+01
ITEM: ATOMS id type xs ys zs
17355 3 0.253713 0.083981 0.0503597
17361 3 0.253713 0.583981 0.0503597
17356 3 0.295933 0.0917151 0.0253797
17357 3 0.28186 0.421322 0.0503597
17358 3 0.310007 0.758878 0.0503597
17362 3 0.295933 0.591715 0.0253797
17363 3 0.28186 0.921323 0.0503597
17364 3 0.310007 0.258878 0.0503597
16817 3 0.366301 0.436863 0.00039968
16823 3 0.366301 0.936864 0.00039968
17365 3 0.32408 0.429213 0.0253797
17366 3 0.352228 0.766886 0.0253797
17367 1 0.338239 0.0961506 0.050392
17368 3 0.380375 0.104716 0.0253797
17369 1 0.366431 0.435578 0.0506922
17371 3 0.32408 0.929213 0.0253797
17372 3 0.352228 0.266886 0.0253797
17373 1 0.338239 0.596151 0.050392
17374 3 0.380375 0.604715 0.0253797
17375 1 0.366431 0.935578 0.0506922
16818 3 0.394448 0.774562 0.00039968
16824 3 0.394448 0.274562 0.00039968
16827 3 0.422595 0.112367 0.00039968
16833 3 0.422595 0.612367 0.00039968
17370 1 0.394579 0.773215 0.0507165
17376 1 0.394579 0.273215 0.0507165
17377 3 0.408522 0.442681 0.0253797
17378 1 0.43668 0.780821 0.0254247
17379 1 0.422648 0.111116 0.0505955
17383 3 0.408522 0.942682 0.0253797
17384 1 0.43668 0.280821 0.0254247
17385 1 0.422648 0.611116 0.0505955
16829 3 0.450743 0.450253 0.00039968
16830 3 0.47889 0.788194 0.00039968
16835 3 0.450743 0.950254 0.00039968
16836 3 0.47889 0.288195 0.00039968
17380 1 0.464825 0.118988 0.0254288
17381 1 0.450774 0.449516 0.0505946
17382 1 0.478907 0.787975 0.0505944
17386 1 0.464825 0.618988 0.0254288
17387 1 0.450774 0.949516 0.0505946
17388 1 0.478907 0.287975 0.0505944
17389 1 0.492969 0.457193 0.0254288
17395 1 0.492969 0.957193 0.0254288
18445 3 0.155198 0.397723 0.1253
18446 3 0.183345 0.73443 0.1253
18451 3 0.155198 0.897723 0.1253
18452 3 0.183345 0.234431 0.1253
17896 3 0.211492 0.0762347 0.0753397
17897 3 0.197418 0.405422 0.10032
17898 3 0.225565 0.74248 0.10032
17902 3 0.211492 0.576234 0.0753397
17903 3 0.197418 0.905423 0.10032
17904 3 0.225565 0.24248 0.10032
17905 3 0.239639 0.413339 0.0753397
17907 1 0.253903 0.0803999 0.100556
17911 3 0.239639 0.91334 0.0753397
17913 1 0.253903 0.5804 0.100556
18448 1 0.211453 0.0704295 0.125383
18454 1 0.211453 0.57043 0.125383
18457 1 0.239781 0.408938 0.125587
18463 1 0.239781 0.908938 0.125587
17906 3 0.267786 0.750686 0.0753397
17908 1 0.29603 0.0889678 0.0756384
17909 1 0.282051 0.418049 0.10067
17910 1 0.310153 0.755913 0.100571
17912 3 0.267786 0.250686 0.0753397
17914 1 0.29603 0.588968 0.0756384
17915 1 0.282051 0.918049 0.10067
17916 1 0.310153 0.255913 0.100571
18458 1 0.267903 0.74676 0.125549
18460 1 0.296063 0.0848387 0.125552
18464 1 0.267903 0.24676 0.125549
18466 1 0.296063 0.584839 0.125552
17917 1 0.324247 0.426595 0.0756334
17918 1 0.352355 0.764661 0.0756006
17919 1 0.338279 0.0940556 0.100549
17920 1 0.380495 0.103191 0.0756347
17921 1 0.366407 0.432437 0.100569
17923 1 0.324247 0.926595 0.0756334
17924 1 0.352355 0.264661 0.0756007
17925 1 0.338279 0.594056 0.100549
17926 1 0.380495 0.603191 0.0756347
17927 1 0.366407 0.932437 0.100569
18469 1 0.324196 0.422949 0.125525
18470 1 0.352326 0.761425 0.125519
18472 1 0.380463 0.100236 0.125527
18475 1 0.324196 0.922949 0.125525
18476 1 0.352326 0.261425 0.125519
18478 1 0.380463 0.600236 0.125527
17922 1 0.39455 0.771128 0.100577
17928 1 0.39455 0.271128 0.100577
17929 1 0.408622 0.441494 0.07559
17930 1 0.43673 0.779824 0.0755434
17931 1 0.422678 0.109867 0.100551
17935 1 0.408622 0.941494 0.07559
17936 1 0.43673 0.279824 0.0755434
17937 1 0.422678 0.609867 0.100551
18481 1 0.408602 0.439303 0.125527
18482 1 0.436733 0.778511 0.125516
18487 1 0.408602 0.939303 0.125527
18488 1 0.436733 0.278511 0.125516
17932 1 0.464852 0.118484 0.075534
17933 1 0.450797 0.448704 0.100528
17934 1 0.478921 0.787735 0.10052
17938 1 0.464852 0.618484 0.075534
17939 1 0.450797 0.948704 0.100528
17940 1 0.478921 0.287735 0.10052
18484 1 0.464858 0.117867 0.125507
18490 1 0.464858 0.617867 0.125507
17941 1 0.492981 0.457242 0.0755302
17947 1 0.492981 0.957242 0.0755302
18493 1 0.492984 0.457344 0.125501
18499 1 0.492984 0.957344 0.125501
18988 3 0.127051 0.0555418 0.17526
18994 3 0.127051 0.555541 0.17526
18438 3 0.141124 0.72669 0.15028
18444 3 0.141124 0.226691 0.15028
18447 3 0.169271 0.0632719 0.15028
18453 3 0.169271 0.563271 0.15028
18997 3 0.155198 0.391967 0.17526
18998 1 0.183532 0.72895 0.175549
19003 3 0.155198 0.891968 0.17526
19004 1 0.183532 0.22895 0.175549
18449 1 0.197607 0.400771 0.150549
18450 1 0.225682 0.737449 0.150501
18455 1 0.197607 0.900771 0.150549
18456 1 0.225682 0.237449 0.150501
18459 1 0.253802 0.0751682 0.150483
18465 1 0.253802 0.575168 0.150483
19000 1 0.211616 0.066113 0.17548
19006 1 0.211616 0.566113 0.17548
19009 1 0.239728 0.403382 0.175434
19015 1 0.239728 0.903382 0.175434
18461 1 0.281954 0.413145 0.150486
18462 1 0.3101 0.751438 0.150479
18467 1 0.281954 0.913145 0.150486
18468 1 0.3101 0.251438 0.150479
19010 1 0.267858 0.741198 0.175421
19012 1 0.295999 0.0794082 0.175418
19016 1 0.267858 0.241198 0.175421
19018 1 0.295999 0.579408 0.175418
18471 1 0.338239 0.0899612 0.150473
18473 1 0.366378 0.428876 0.15048
18477 1 0.338239 0.589961 0.150473
18479 1 0.366378 0.928876 0.15048
19021 1 0.324144 0.418011 0.175422
19022 1 0.352287 0.757022 0.175429
19024 1 0.38043 0.0964894 0.175442
19027 1 0.324144 0.918011 0.175422
19028 1 0.352287 0.257022 0.175429
19030 1 0.38043 0.596489 0.175442
18474 1 0.394518 0.768171 0.15049
18480 1 0.394518 0.268171 0.15049
18483 1 0.422656 0.107745 0.150493
18489 1 0.422656 0.607745 0.150493
19033 1 0.408572 0.436362 0.175455
19034 1 0.436712 0.776549 0.175464
19039 1 0.408572 0.936362 0.175455
19040 1 0.436712 0.276549 0.175464
18485 1 0.450789 0.447512 0.150492
18486 1 0.478919 0.787424 0.150489
18491 1 0.450789 0.947512 0.150492
18492 1 0.478919 0.287424 0.150489
19036 1 0.464848 0.116952 0.175468
19042 1 0.464848 0.616952 0.175468
19045 1 0.492982 0.457472 0.175467
19051 1 0.492982 0.957472 0.175467
18987 3 0.0848298 0.048321 0.20024
18989 3 0.112977 0.384302 0.20024
18993 3 0.0848298 0.54832 0.20024
18995 3 0.112977 0.884302 0.20024
19537 3 0.0707563 0.377222 0.22522
19538 3 0.0989034 0.713 0.22522
19540 1 0.12725 0.0497808 0.225471
19543 3 0.0707563 0.877223 0.22522
19544 3 0.0989034 0.213001 0.22522
19546 1 0.12725 0.549781 0.225471
18990 1 0.141091 0.72019 0.200356
18996 1 0.141091 0.220189 0.200356
18999 1 0.16932 0.0571934 0.200395
19005 1 0.16932 0.557193 0.200395
19549 1 0.155326 0.385646 0.2254
19550 1 0.183406 0.722123 0.225329
19555 1 0.155326 0.885646 0.2254
19556 1 0.183406 0.222123 0.225329
19001 1 0.197479 0.394335 0.200412
19002 1 0.225636 0.731511 0.200394
19007 1 0.197479 0.894335 0.200412
19008 1 0.225636 0.231511 0.200394
19011 1 0.253767 0.0690277 0.200366
19017 1 0.253767 0.569028 0.200366
19552 1 0.211544 0.0592368 0.225329
19558 1 0.211544 0.559237 0.225329
19561 1 0.239677 0.396592 0.225314
19567 1 0.239677 0.896592 0.225314
19013 1 0.281904 0.407041 0.200359
19014 1 0.310046 0.745575 0.200362
19019 1 0.281904 0.907041 0.200359
19020 1 0.310046 0.245575 0.200362
19562 1 0.267811 0.734385 0.225302
19564 1 0.295947 0.0727371 0.2253
19568 1 0.267811 0.234385 0.225302
19570 1 0.295947 0.572737 0.2253
19023 1 0.338189 0.0846215 0.20037
19025 1 0.366335 0.424201 0.200385
19029 1 0.338189 0.584622 0.20037
19031 1 0.366335 0.924201 0.200385
19573 1 0.324088 0.411687 0.225306
19574 1 0.352234 0.75128 0.22532
19576 1 0.380384 0.0915288 0.225342
19579 1 0.324088 0.911687 0.225306
19580 1 0.352234 0.25128 0.22532
19582 1 0.380384 0.591529 0.225342
19026 1 0.394482 0.76431 0.200404
19032 1 0.394482 0.26431 0.200404
19035 1 0.422628 0.10488 0.200422
19041 1 0.422628 0.60488 0.200422
19585 1 0.408535 0.432405 0.225368
19586 1 0.436685 0.773812 0.225392
19591 1 0.408535 0.932405 0.225368
19592 1 0.436685 0.273812 0.225392
19037 1 0.450771 0.445799 0.200436
19038 1 0.478912 0.786932 0.200443
19043 1 0.450771 0.945799 0.200436
19044 1 0.478912 0.286932 0.200443
19588 1 0.464834 0.115596 0.225409
19594 1 0.464834 0.615596 0.225409
19597 1 0.492981 0.457582 0.225414
19603 1 0.492981 0.957582 0.225414
19530 3 0.0566827 0.706111 0.2502
19536 3 0.0566827 0.206112 0.2502
20080 3 0.0426091 0.0350135 0.27518
20082 3 0.0566827 0.699032 0.30016
20086 3 0.0426091 0.535013 0.27518
20088 3 0.0566827 0.199032 0.30016
19539 3 0.0848298 0.0416672 0.2502
19541 1 0.113232 0.377706 0.250442
19545 3 0.0848298 0.541667 0.2502
19547 1 0.113232 0.877706 0.250442
20089 3 0.0707563 0.370333 0.27518
20090 1 0.0992357 0.705628 0.275285
20091 1 0.0851418 0.0335532 0.300211
20092 1 0.127269 0.041667 0.275309
20093 1 0.113217 0.369415 0.300238
20095 3 0.0707563 0.870333 0.27518
20096 1 0.0992357 0.205628 0.275285
20097 1 0.0851418 0.533553 0.300211
20098 1 0.127269 0.541667 0.275309
20099 1 0.113217 0.869415 0.300238
19542 1 0.14131 0.713919 0.250374
19548 1 0.14131 0.213919 0.250374
19551 1 0.169394 0.0500973 0.250313
19557 1 0.169394 0.550097 0.250313
20094 1 0.1413 0.705489 0.300248
20100 1 0.1413 0.205489 0.300248
20101 1 0.15536 0.377845 0.275292
20102 1 0.18344 0.714233 0.27525
20103 1 0.169381 0.041667 0.300225
20107 1 0.15536 0.877845 0.275292
20108 1 0.18344 0.214233 0.27525
20109 1 0.169381 0.541667 0.300225
19553 1 0.197485 0.38672 0.250274
19554 1 0.225599 0.723849 0.250261
19559 1 0.197485 0.88672 0.250274
19560 1 0.225599 0.223849 0.250261
19563 1 0.253722 0.0614298 0.250249
19569 1 0.253722 0.56143 0.250249
20104 1 0.211534 0.0509879 0.275221
20105 1 0.197472 0.378115 0.300195
20106 1 0.225567 0.714972 0.300167
20110 1 0.211534 0.550988 0.275221
20111 1 0.197472 0.878115 0.300195
20112 1 0.225567 0.214972 0.300167
20113 1 0.239641 0.388244 0.275202
20115 1 0.253671 0.0523409 0.300146
20119 1 0.239641 0.888244 0.275202
20121 1 0.253671 0.552341 0.300146
19565 1 0.28185 0.399535 0.250241
19566 1 0.309985 0.738273 0.250241
19571 1 0.28185 0.899535 0.250241
19572 1 0.309985 0.238273 0.250241
20114 1 0.267757 0.726034 0.275188
20116 1 0.295882 0.0644541 0.27518
20117 1 0.281783 0.390337 0.300129
20118 1 0.309906 0.72909 0.30012
20120 1 0.267757 0.226034 0.275188
20122 1 0.295882 0.564454 0.27518
20123 1 0.281783 0.890337 0.300129
20124 1 0.309906 0.22909 0.30012
19575 1 0.338127 0.0777328 0.250251
19577 1 0.366276 0.417983 0.250271
19581 1 0.338127 0.577733 0.250251
19583 1 0.366276 0.917983 0.250271
20135 1 0.366189 0.909519 0.300139
20134 1 0.380315 0.584733 0.275222
20133 1 0.338041 0.568758 0.300122
20125 1 0.324016 0.403634 0.275182
20126 1 0.352161 0.743697 0.275196
20127 1 0.338041 0.0687576 0.300122
20128 1 0.380315 0.0847332 0.275222
20129 1 0.366189 0.409519 0.300139
20131 1 0.324016 0.903634 0.275182
20132 1 0.352161 0.243697 0.275196
20145 1 0.422524 0.594882 0.300215
20144 1 0.436644 0.269777 0.275297
20143 1 0.408477 0.926781 0.275259
19578 1 0.394431 0.759038 0.250301
20139 1 0.422524 0.0948815 0.300215
19584 1 0.394431 0.259038 0.250301
20138 1 0.436644 0.769777 0.275297
20137 1 0.408477 0.426781 0.275259
19587 1 0.422588 0.100847 0.250333
20136 1 0.394351 0.251535 0.300171
19593 1 0.422588 0.600847 0.250333
20130 1 0.394351 0.751535 0.300171
20148 1 0.478889 0.284862 0.300284
20147 1 0.450705 0.939438 0.300258
20146 1 0.464812 0.613518 0.275327
20142 1 0.478889 0.784862 0.300284
20141 1 0.450705 0.439438 0.300258
20140 1 0.464812 0.113518 0.275327
19589 1 0.450746 0.443281 0.250361
19590 1 0.478902 0.786126 0.250377
19595 1 0.450746 0.943281 0.250361
19596 1 0.478902 0.286126 0.250377
20149 1 0.492981 0.457668 0.275337
20155 1 0.492981 0.957668 0.275337
21190 3 0.0426091 0.520062 0.3751
21188 3 0.014462 0.185611 0.3751
21184 3 0.0426091 0.0200625 0.3751
21182 3 0.014462 0.685611 0.3751
20640 3 0.0566827 0.191367 0.35012
20639 3 0.0285356 0.856644 0.35012
20638 3 0.0426091 0.527792 0.32514
20634 3 0.0566827 0.691366 0.35012
20633 3 0.0285356 0.356643 0.35012
20632 3 0.0426091 0.0277927 0.32514
21202 1 0.127169 0.524097 0.375092
21200 1 0.0990794 0.188999 0.375067
21199 1 0.0710941 0.854384 0.375122
21196 1 0.127169 0.0240972 0.375092
21194 1 0.0990794 0.688999 0.375067
21193 1 0.0710941 0.354384 0.375122
20651 1 0.113099 0.861211 0.35012
20650 1 0.127207 0.533237 0.325192
20649 1 0.0849858 0.526141 0.350086
20648 1 0.0991203 0.197688 0.325164
20647 1 0.0708372 0.863144 0.325052
20645 1 0.113099 0.361211 0.35012
20644 1 0.127207 0.0332366 0.325192
20643 1 0.0849858 0.0261406 0.350086
20642 1 0.0991203 0.697688 0.325164
20641 1 0.0708372 0.363144 0.325052
21212 1 0.183365 0.19509 0.375091
21211 1 0.155266 0.859485 0.375099
21206 1 0.183365 0.69509 0.375091
21205 1 0.155266 0.359485 0.375099
20661 1 0.169327 0.532346 0.350137
20660 1 0.183401 0.205219 0.32517
20659 1 0.155304 0.8691 0.32519
20655 1 0.169327 0.0323461 0.350137
20654 1 0.183401 0.705219 0.32517
20653 1 0.155304 0.3691 0.32519
20652 1 0.14122 0.196614 0.350142
20646 1 0.14122 0.696614 0.350142
21223 1 0.23955 0.867298 0.375043
21217 1 0.23955 0.367298 0.375043
21214 1 0.211459 0.530993 0.37507
21208 1 0.211459 0.030993 0.37507
20673 1 0.253615 0.541667 0.350062
20671 1 0.239592 0.878564 0.325114
20667 1 0.253615 0.041667 0.350062
20665 1 0.239592 0.378564 0.325114
20664 1 0.22552 0.20477 0.350091
20663 1 0.197426 0.868362 0.350117
20662 1 0.211495 0.541667 0.325142
20658 1 0.22552 0.70477 0.350091
20657 1 0.197426 0.368362 0.350117
20656 1 0.211495 0.041667 0.325142
21226 1 0.295732 0.541667 0.374981
21224 1 0.26764 0.204125 0.375012
21220 1 0.295732 0.041667 0.374981
21218 1 0.26764 0.704125 0.375012
20676 1 0.309818 0.217574 0.35001
20675 1 0.281713 0.879209 0.350034
20674 1 0.295803 0.554235 0.325069
20672 1 0.267693 0.216036 0.325089
20670 1 0.309818 0.717574 0.35001
20669 1 0.281713 0.379209 0.350034
20668 1 0.295803 0.0542351 0.325069
20666 1 0.267693 0.716036 0.325089
21238 1 0.380074 0.561393 0.374921
21236 1 0.351942 0.219891 0.37493
21235 1 0.323831 0.880144 0.374952
21232 1 0.380074 0.0613934 0.374921
21230 1 0.351942 0.719891 0.37493
21229 1 0.323831 0.380144 0.374952
20687 1 0.36607 0.897829 0.349993
20686 1 0.380212 0.575152 0.325078
20685 1 0.337935 0.557002 0.349995
20684 1 0.352059 0.233537 0.325059
20683 1 0.323924 0.893325 0.325058
20681 1 0.36607 0.397829 0.349993
20680 1 0.380212 0.0751524 0.325078
20679 1 0.337935 0.0570014 0.349995
20678 1 0.352059 0.733537 0.325059
20677 1 0.323924 0.393325 0.325058
21248 1 0.436448 0.252738 0.374979
21247 1 0.408238 0.905361 0.374935
21242 1 0.436448 0.752738 0.374979
21241 1 0.408238 0.405362 0.374935
20697 1 0.422418 0.585479 0.350054
20696 1 0.436575 0.263525 0.325167
20695 1 0.408385 0.918444 0.325117
20691 1 0.422418 0.0854787 0.350054
20690 1 0.436575 0.763525 0.325167
20689 1 0.408385 0.418444 0.325117
20688 1 0.394229 0.240501 0.350012
20682 1 0.394229 0.740501 0.350012
21250 1 0.464704 0.604022 0.375042
21244 1 0.464704 0.104023 0.375042
20700 1 0.478863 0.282659 0.350151
20699 1 0.450633 0.933017 0.350111
20698 1 0.464776 0.610191 0.325211
20694 1 0.478863 0.782659 0.350151
20693 1 0.450633 0.433017 0.350111
20692 1 0.464776 0.110191 0.325211
21259 1 0.49298 0.957973 0.37507
21253 1 0.49298 0.457974 0.37507
20707 1 0.492981 0.95781 0.325228
20701 1 0.492981 0.45781 0.325228
21742 1 0.0426604 0.512904 0.424984
21740 3 0.014462 0.177911 0.42506
21736 1 0.0426604 0.0129044 0.424984
21734 3 0.014462 0.677911 0.42506
21192 1 0.0570045 0.182563 0.400112
21191 3 0.0285356 0.848904 0.40008
21186 1 0.0570045 0.682563 0.400112
21185 3 0.0285356 0.348903 0.40008
21754 1 0.127185 0.514306 0.425045
21752 1 0.0990954 0.179952 0.425052
21751 1 0.0710015 0.845885 0.425053
21748 1 0.127185 0.0143063 0.425045
21746 1 0.0990954 0.679952 0.425052
21745 1 0.0710015 0.345885 0.425053
21203 1 0.113143 0.851823 0.400065
21201 1 0.0850782 0.517221 0.40008
21197 1 0.113143 0.351823 0.400065
21195 1 0.0850782 0.0172209 0.40008
21764 1 0.183374 0.183799 0.425031
21763 1 0.155279 0.848949 0.42504
21758 1 0.183374 0.683799 0.425031
21757 1 0.155279 0.348949 0.42504
21213 1 0.169317 0.521904 0.400064
21207 1 0.169317 0.0219041 0.400064
21204 1 0.141222 0.186742 0.400067
21198 1 0.141222 0.686742 0.400067
21775 1 0.239555 0.854244 0.424991
21769 1 0.239555 0.354244 0.424991
21766 1 0.211466 0.51888 0.425014
21760 1 0.211466 0.0188798 0.425014
21225 1 0.253588 0.529099 0.4
21219 1 0.253588 0.0290989 0.4
21216 1 0.225501 0.192997 0.400028
21215 1 0.197411 0.8573 0.40005
21210 1 0.225501 0.692997 0.400028
21209 1 0.197411 0.3573 0.40005
21778 1 0.295718 0.526332 0.424928
21776 1 0.267639 0.190009 0.424962
21772 1 0.295718 0.0263325 0.424928
21770 1 0.267639 0.690009 0.424962
21228 1 0.309757 0.20319 0.399932
21227 1 0.281673 0.86576 0.399967
21222 1 0.309757 0.703189 0.399932
21221 1 0.281673 0.36576 0.399967
21790 1 0.379948 0.541667 0.424808
21788 1 0.351869 0.201695 0.424851
21787 1 0.323794 0.863443 0.424891
21784 1 0.379948 0.041667 0.424808
21782 1 0.351869 0.701695 0.424851
21781 1 0.323794 0.363443 0.424891
21239 1 0.365945 0.881639 0.399866
21237 1 0.337846 0.541667 0.399897
21233 1 0.365945 0.381639 0.399866
21231 1 0.337846 0.0416669 0.399897
21800 1 0.436194 0.232088 0.424717
21799 1 0.408046 0.884347 0.424764
21794 1 0.436194 0.732088 0.424717
21793 1 0.408046 0.384348 0.424764
21249 1 0.422231 0.569411 0.399841
21243 1 0.422231 0.0694101 0.399841
21240 1 0.394066 0.223807 0.399844
21234 1 0.394067 0.723807 0.399844
21802 1 0.464506 0.589696 0.424756
21796 1 0.464506 0.0896978 0.424757
21252 1 0.478805 0.277957 0.399953
21251 1 0.450475 0.920519 0.399883
21246 1 0.478805 0.777955 0.399953
21245 1 0.450475 0.420519 0.399883
21811 1 0.492978 0.958124 0.424846
21805 1 0.492978 0.458125 0.424846
21744 1 0.0569968 0.174396 0.450022
21743 3 0.0285356 0.840854 0.45004
21741 3 0.00038843 0.507099 0.45004
21738 1 0.0569968 0.674396 0.450022
21737 3 0.0285356 0.340854 0.45004
21735 3 0.00038843 0.00709974 0.45004
22286 3 0.014462 0.669994 0.47502
22287 3 0.00038843 0.999353 0.5
22288 1 0.0429037 0.0029341 0.475071
22289 3 0.0285356 0.332647 0.5
22290 1 0.0570744 0.665285 0.499994
22292 3 0.014462 0.169995 0.47502
22293 3 0.00038843 0.499353 0.5
22294 1 0.0429037 0.502934 0.475071
22295 3 0.0285356 0.832648 0.5
22296 1 0.0570744 0.165285 0.499994
21755 1 0.113149 0.842136 0.450023
21753 1 0.0850466 0.508166 0.450018
21749 1 0.113149 0.342136 0.450023
21747 1 0.0850466 0.00816573 0.450018
22297 1 0.0710253 0.336574 0.474999
22298 1 0.0991245 0.670189 0.475
22299 1 0.0851077 0.998495 0.499989
22300 1 0.127218 0.00392574 0.474999
22301 1 0.113192 0.331896 0.499983
22303 1 0.0710253 0.836574 0.474999
22304 1 0.0991245 0.170189 0.475
22305 1 0.0851077 0.498495 0.499989
22306 1 0.127218 0.503926 0.474999
22307 1 0.113192 0.831896 0.499983
21765 1 0.169345 0.510597 0.450012
21759 1 0.169345 0.0105968 0.450012
21756 1 0.141247 0.176293 0.45002
21750 1 0.141247 0.676293 0.45002
22302 1 0.141293 0.665323 0.499976
22308 1 0.141293 0.165323 0.499976
22309 1 0.15532 0.337759 0.474994
22310 1 0.183421 0.671647 0.474984
22311 1 0.169399 0.998712 0.499966
22315 1 0.15532 0.837759 0.474994
22316 1 0.183421 0.171647 0.474984
22317 1 0.169399 0.498712 0.499966
21777 1 0.253624 0.514576 0.449959
21771 1 0.253624 0.0145763 0.449959
21768 1 0.225535 0.1797 0.449982
21767 1 0.197442 0.845061 0.45
21762 1 0.225535 0.6797 0.449982
21761 1 0.197442 0.345061 0.45
22312 1 0.211522 0.00560118 0.474971
22313 1 0.197507 0.332054 0.499956
22314 1 0.225613 0.665351 0.499942
22318 1 0.211522 0.505601 0.474971
22319 1 0.197507 0.832054 0.499956
22320 1 0.225613 0.165351 0.499942
22321 1 0.239619 0.339637 0.474953
22323 1 0.253718 0.998601 0.499926
22327 1 0.239619 0.839637 0.474953
22329 1 0.253718 0.498601 0.499926
21780 1 0.309784 0.185505 0.449898
21779 1 0.281708 0.849797 0.449931
21774 1 0.309784 0.685505 0.449898
21773 1 0.281708 0.349797 0.449931
22322 1 0.267713 0.673815 0.474931
22324 1 0.2958 0.00818149 0.474907
22325 1 0.281821 0.331799 0.499908
22326 1 0.309919 0.66489 0.49989
22328 1 0.267713 0.173815 0.474931
22330 1 0.2958 0.508182 0.474907
22331 1 0.281821 0.831798 0.499908
22332 1 0.309919 0.16489 0.49989
21791 1 0.365911 0.859527 0.449819
21789 1 0.337852 0.521941 0.449862
21785 1 0.365911 0.359527 0.449819
21783 1 0.337852 0.0219405 0.449862
22333 1 0.32388 0.342833 0.47488
22334 1 0.351946 0.677972 0.474851
22335 1 0.338009 0.997855 0.499876
22336 1 0.37999 0.0139238 0.474816
22337 1 0.366089 0.330596 0.499865
22339 1 0.32388 0.842832 0.47488
22340 1 0.351946 0.177973 0.474851
22341 1 0.338009 0.497855 0.499876
22342 1 0.37999 0.513923 0.474816
22343 1 0.366089 0.830596 0.499865
21801 1 0.422005 0.541667 0.44969
21795 1 0.422005 0.0416669 0.44969
21792 1 0.39396 0.198987 0.449766
21786 1 0.39396 0.698986 0.449766
22338 1 0.394149 0.662815 0.499861
22344 1 0.394149 0.162814 0.499861
22345 1 0.407994 0.351246 0.47477
22346 1 0.435958 0.691212 0.474703
22347 1 0.422184 0.993636 0.499877
22351 1 0.407994 0.851246 0.47477
22352 1 0.435958 0.19121 0.474702
22353 1 0.422184 0.493637 0.499877
21804 1 0.478605 0.262636 0.449644
21803 1 0.450119 0.892124 0.449568
21798 1 0.478605 0.762635 0.449644
21797 1 0.450119 0.392122 0.449568
22348 1 0.464009 0.041667 0.474543
22349 1 0.450266 0.320699 0.499945
22363 1 0.492976 0.958292 0.474595
22354 1 0.464009 0.541667 0.474543
22355 1 0.450266 0.820698 0.499945
22357 1 0.492976 0.458292 0.474595
22838 3 0.014462 0.662011 0.52498
22839 3 0.00038843 0.991619 0.54996
22840 1 0.04291 0.994366 0.524917
22841 3 0.0285356 0.324456 0.54996
22842 1 0.0570144 0.656739 0.549961
22844 3 0.014462 0.162012 0.52498
22845 3 0.00038843 0.491619 0.54996
22846 1 0.04291 0.494366 0.524917
22847 3 0.0285356 0.824456 0.54996
22848 1 0.0570144 0.156739 0.549961
22849 1 0.0710418 0.327421 0.524984
22850 1 0.0991514 0.660385 0.524971
22851 1 0.0850861 0.989278 0.549957
22852 1 0.127256 0.993373 0.524959
22853 1 0.113212 0.321909 0.549938
22855 1 0.0710418 0.827421 0.524984
22856 1 0.0991514 0.160385 0.524971
22857 1 0.0850861 0.489278 0.549957
22858 1 0.127256 0.493373 0.524959
22859 1 0.113212 0.821909 0.549938
22854 1 0.141332 0.654458 0.549928
22860 1 0.141332 0.154458 0.549928
22861 1 0.15537 0.326312 0.524948
22862 1 0.183485 0.659133 0.524937
22863 1 0.169453 0.986845 0.549918
22867 1 0.15537 0.826312 0.524948
22868 1 0.183485 0.159133 0.524937
22869 1 0.169453 0.486845 0.549918
22864 1 0.2116 0.991805 0.524927
22865 1 0.197574 0.319024 0.549908
22866 1 0.225697 0.650929 0.549897
22870 1 0.2116 0.491805 0.524927
22871 1 0.197574 0.819024 0.549908
22872 1 0.225697 0.150929 0.549897
22873 1 0.239716 0.324296 0.524914
22875 1 0.253822 0.982487 0.549887
22879 1 0.239716 0.824296 0.524914
22881 1 0.253822 0.482487 0.549887
22874 1 0.26783 0.656553 0.524901
22876 1 0.295944 0.988452 0.524889
22877 1 0.281946 0.313556 0.549879
22878 1 0.310071 0.643896 0.549878
22880 1 0.26783 0.156553 0.524901
22882 1 0.295944 0.488452 0.524889
22883 1 0.281946 0.813557 0.549879
22884 1 0.310071 0.143896 0.549878
22885 1 0.324056 0.319809 0.524884
22886 1 0.352165 0.650317 0.524887
22887 1 0.338194 0.973143 0.549889
22888 1 0.38027 0.979311 0.524909
22889 1 0.366314 0.300675 0.54992
22891 1 0.324056 0.819809 0.524884
22892 1 0.352165 0.150317 0.524887
22893 1 0.338194 0.473143 0.549889
22894 1 0.38027 0.479311 0.524909
22895 1 0.366314 0.800675 0.54992
22890 1 0.394431 0.62536 0.54999
22896 1 0.394431 0.125361 0.54999
22897 1 0.408372 0.305379 0.524968
22898 1 0.436495 0.625209 0.5251
22899 1 0.422545 0.945194 0.550127
22903 1 0.408372 0.805377 0.524968
22904 1 0.436495 0.12521 0.5251
22905 1 0.422545 0.445194 0.550127
22900 1 0.464636 0.929579 0.525455
22901 1 0.450653 0.256793 0.550414
22902 1 0.478812 0.559083 0.550777
22906 1 0.464636 0.429576 0.525455
22907 1 0.450653 0.756793 0.550414
22908 1 0.478812 0.0590855 0.550777
22909 1 0.492972 0.208501 0.525959
22915 1 0.492972 0.708505 0.525958
22356 1 0.478537 0.125042 0.500224
22350 1 0.478537 0.625042 0.500223
23390 3 0.014462 0.654121 0.57494
23392 1 0.0426787 0.987183 0.574999
23393 3 0.0285356 0.316448 0.59992
23394 1 0.0570287 0.647756 0.599869
23396 3 0.014462 0.154121 0.57494
23398 1 0.0426787 0.487183 0.574999
23399 3 0.0285356 0.816448 0.59992
23400 1 0.0570287 0.147756 0.599869
23942 3 0.014462 0.64647 0.6249
23944 3 0.0426091 0.978619 0.6249
23948 3 0.014462 0.146471 0.6249
23950 3 0.0426091 0.478618 0.6249
23401 1 0.0710405 0.318673 0.574923
23402 1 0.099167 0.650897 0.574909
23403 1 0.0851394 0.980143 0.59988
23404 1 0.127287 0.983098 0.574905
23405 1 0.113245 0.312206 0.599882
23407 1 0.0710405 0.818673 0.574923
23408 1 0.099167 0.150897 0.574909
23409 1 0.0851394 0.480143 0.59988
23410 1 0.127287 0.483098 0.574905
23411 1 0.113245 0.812206 0.599882
23953 1 0.0711231 0.310119 0.624838
23954 1 0.0991651 0.64184 0.624864
23956 1 0.127287 0.973467 0.624858
23959 1 0.0711231 0.810119 0.624838
23960 1 0.0991651 0.14184 0.624864
23962 1 0.127287 0.473467 0.624858
23406 1 0.141356 0.64403 0.599878
23412 1 0.141356 0.14403 0.599878
23413 1 0.15541 0.315163 0.574897
23414 1 0.183535 0.646972 0.574887
23415 1 0.169482 0.975589 0.599867
23419 1 0.15541 0.815163 0.574897
23420 1 0.183535 0.146972 0.574887
23421 1 0.169482 0.475589 0.599867
23965 1 0.155412 0.304823 0.624848
23966 1 0.183547 0.635822 0.624835
23971 1 0.155412 0.804823 0.624848
23972 1 0.183547 0.135822 0.624835
23416 1 0.211662 0.978454 0.574878
23417 1 0.197612 0.306785 0.599857
23418 1 0.225746 0.637535 0.599847
23422 1 0.211662 0.478454 0.574878
23423 1 0.197612 0.806785 0.599857
23424 1 0.225746 0.137535 0.599847
23425 1 0.239792 0.309522 0.574869
23427 1 0.253881 0.967738 0.599842
23431 1 0.239792 0.809522 0.574869
23433 1 0.253881 0.467738 0.599842
23968 1 0.211684 0.966381 0.624825
23974 1 0.211684 0.466381 0.624825
23977 1 0.239822 0.296402 0.624818
23983 1 0.239822 0.796402 0.624818
23426 1 0.267924 0.640053 0.574862
23428 1 0.296055 0.969815 0.574863
23429 1 0.282016 0.297208 0.599843
23430 1 0.310149 0.625666 0.599857
23432 1 0.267924 0.140053 0.574862
23434 1 0.296055 0.469816 0.574863
23435 1 0.282016 0.797208 0.599843
23436 1 0.310149 0.125666 0.599857
23978 1 0.267959 0.625752 0.624819
23980 1 0.296093 0.954219 0.624831
23984 1 0.267959 0.125752 0.624819
23986 1 0.296093 0.454219 0.624831
23437 1 0.324185 0.298472 0.574877
23438 1 0.352311 0.625524 0.574911
23439 1 0.338276 0.952731 0.59989
23440 1 0.380431 0.950212 0.574979
23441 1 0.366397 0.27791 0.599952
23443 1 0.324185 0.798472 0.574877
23444 1 0.352311 0.125524 0.574911
23445 1 0.338276 0.45273 0.59989
23446 1 0.380431 0.450211 0.574979
23447 1 0.366397 0.77791 0.599952
23989 1 0.324222 0.281517 0.624862
23990 1 0.352345 0.607318 0.624916
23992 1 0.380459 0.931267 0.625003
23995 1 0.324222 0.781517 0.624862
23996 1 0.352345 0.107317 0.624916
23998 1 0.380459 0.431267 0.625003
23442 1 0.39451 0.600586 0.600054
23448 1 0.39451 0.100586 0.600054
23449 1 0.408544 0.271421 0.575099
23450 1 0.436649 0.587777 0.575305
23451 1 0.422616 0.920158 0.600208
23455 1 0.408544 0.771422 0.575099
23456 1 0.436649 0.0877747 0.575305
23457 1 0.422616 0.420158 0.600208
24001 1 0.408568 0.253076 0.625124
24002 1 0.436683 0.572806 0.625269
24007 1 0.408568 0.753075 0.625124
24008 1 0.436683 0.0728075 0.625269
23452 1 0.464773 0.899204 0.575563
23453 1 0.450733 0.236686 0.600395
23454 1 0.478885 0.551483 0.600523
23458 1 0.464773 0.399207 0.575563
23459 1 0.450733 0.736687 0.600395
23460 1 0.478885 0.0514807 0.600523
24004 1 0.464817 0.891104 0.625391
24010 1 0.464817 0.391102 0.625391
23461 1 0.49297 0.208643 0.575668
23467 1 0.49297 0.708638 0.575668
24013 1 0.492969 0.208815 0.625439
24019 1 0.492969 0.708818 0.625439
23945 3 0.0285356 0.308772 0.64988
23946 3 0.0566827 0.640652 0.64988
23951 3 0.0285356 0.808772 0.64988
23952 3 0.0566827 0.140652 0.64988
24496 3 0.0426091 0.970967 0.67486
24502 3 0.0426091 0.470967 0.67486
23955 1 0.0850556 0.972218 0.649809
23957 1 0.11318 0.30351 0.649833
23961 1 0.0850556 0.472218 0.649809
23963 1 0.11318 0.80351 0.649833
24505 1 0.0707997 0.302512 0.674847
24506 1 0.0991176 0.633818 0.674771
24508 1 0.127233 0.96485 0.674795
24511 1 0.0707997 0.802512 0.674847
24512 1 0.0991176 0.133818 0.674771
24514 1 0.127233 0.46485 0.674795
23958 1 0.141327 0.63463 0.649824
23964 1 0.141327 0.13463 0.649824
23967 1 0.169468 0.965467 0.649814
23973 1 0.169468 0.465467 0.649814
24517 1 0.155383 0.295599 0.674788
24518 1 0.183525 0.62599 0.674777
24523 1 0.155383 0.795599 0.674788
24524 1 0.183525 0.12599 0.674777
23969 1 0.197609 0.29591 0.649801
23970 1 0.22575 0.625862 0.649793
23975 1 0.197609 0.79591 0.649801
23976 1 0.22575 0.125862 0.649793
23979 1 0.25389 0.955199 0.649792
23985 1 0.25389 0.455199 0.649792
24520 1 0.21167 0.955944 0.674767
24526 1 0.21167 0.455944 0.674767
24529 1 0.239812 0.28535 0.674762
24535 1 0.239812 0.78535 0.674762
23981 1 0.282026 0.283775 0.649802
23982 1 0.310157 0.61138 0.649828
23987 1 0.282026 0.783775 0.649802
23988 1 0.310157 0.11138 0.649828
24530 1 0.267951 0.61409 0.674769
24532 1 0.296085 0.942015 0.67479
24536 1 0.267951 0.11409 0.674769
24538 1 0.296085 0.442015 0.67479
23991 1 0.338281 0.937789 0.649875
23993 1 0.366399 0.262785 0.649948
23997 1 0.338281 0.437789 0.649875
23999 1 0.366399 0.762785 0.649948
24541 1 0.324212 0.268968 0.67483
24542 1 0.352333 0.59481 0.674892
24544 1 0.38045 0.919456 0.674974
24547 1 0.324212 0.768968 0.67483
24548 1 0.352333 0.0948097 0.674892
24550 1 0.38045 0.419456 0.674974
24560 1 0.436691 0.0654654 0.675167
24559 1 0.408567 0.74294 0.675071
23994 1 0.394511 0.586213 0.650047
24000 1 0.394511 0.0862125 0.650047
24003 1 0.422626 0.908124 0.650164
24009 1 0.422626 0.408124 0.650164
24553 1 0.408567 0.242939 0.675071
24554 1 0.436691 0.565466 0.675167
24562 1 0.464826 0.387368 0.675239
24556 1 0.464826 0.887367 0.675239
24005 1 0.450753 0.228863 0.650274
24006 1 0.478895 0.548952 0.650341
24011 1 0.450753 0.728863 0.650274