ITEM: TIMESTEP
39
ITEM: NUMBER OF ATOMS
2346
ITEM: BOX BOUNDS ss pp ss
-4.1409160050000004e+01 4.1409147969000003e+01
-4.1208122699999999e-01 4.5329187729999996e+00
-3.9987527801000006e+01 4.0828667890000006e+01
ITEM: ATOMS id type xs ys zs
17355 3 0.253713 0.0839011 0.0503597
17361 3 0.253713 0.583901 0.0503597
17356 3 0.295933 0.0916496 0.0253797
17357 3 0.28186 0.421248 0.0503597
17358 3 0.310007 0.758809 0.0503597
17362 3 0.295933 0.591649 0.0253797
17363 3 0.28186 0.921248 0.0503597
17364 3 0.310007 0.25881 0.0503597
16817 3 0.366301 0.43682 0.00039968
16823 3 0.366301 0.936821 0.00039968
17365 3 0.32408 0.429154 0.0253797
17366 3 0.352228 0.766834 0.0253797
17367 1 0.338238 0.0960909 0.050392
17368 3 0.380375 0.104673 0.0253797
17369 1 0.366431 0.435528 0.0506921
17371 3 0.32408 0.929154 0.0253797
17372 3 0.352228 0.266835 0.0253797
17373 1 0.338238 0.596091 0.050392
17374 3 0.380375 0.604672 0.0253797
17375 1 0.366431 0.935528 0.0506921
16818 3 0.394448 0.774527 0.00039968
16824 3 0.394448 0.274527 0.00039968
16827 3 0.422595 0.112341 0.00039968
16833 3 0.422595 0.61234 0.00039968
17370 1 0.394578 0.773177 0.0507163
17376 1 0.394578 0.273177 0.0507163
17377 3 0.408522 0.442648 0.0253797
17378 1 0.436679 0.780801 0.0254244
17379 1 0.422648 0.11109 0.0505951
17383 3 0.408522 0.942648 0.0253797
17384 1 0.436679 0.280801 0.0254244
17385 1 0.422648 0.61109 0.0505951
16829 3 0.450743 0.450236 0.00039968
16830 3 0.47889 0.788187 0.00039968
16835 3 0.450743 0.950237 0.00039968
16836 3 0.47889 0.288188 0.00039968
17380 1 0.464825 0.11898 0.0254284
17381 1 0.450773 0.449503 0.050594
17382 1 0.478906 0.787977 0.0505936
17386 1 0.464825 0.61898 0.0254284
17387 1 0.450773 0.949503 0.050594
17388 1 0.478906 0.287977 0.0505936
17389 1 0.492967 0.457196 0.0254282
17395 1 0.492967 0.957196 0.0254282
18445 3 0.155198 0.397611 0.1253
18446 3 0.183345 0.734319 0.1253
18451 3 0.155198 0.897612 0.1253
18452 3 0.183345 0.23432 0.1253
17896 3 0.211492 0.0761419 0.0753397
17897 3 0.197418 0.405321 0.10032
17898 3 0.225565 0.742381 0.10032
17902 3 0.211492 0.576141 0.0753397
17903 3 0.197418 0.905321 0.10032
17904 3 0.225565 0.242381 0.10032
17905 3 0.239639 0.41325 0.0753397
17907 1 0.253903 0.080308 0.100556
17911 3 0.239639 0.91325 0.0753397
17913 1 0.253903 0.580308 0.100556
18448 1 0.211453 0.0703227 0.125384
18454 1 0.211453 0.570323 0.125384
18457 1 0.239781 0.408837 0.125588
18463 1 0.239781 0.908837 0.125588
17906 3 0.267786 0.750601 0.0753397
17908 1 0.29603 0.0888902 0.0756385
17909 1 0.28205 0.417964 0.10067
17910 1 0.310153 0.755838 0.100571
17912 3 0.267786 0.250602 0.0753397
17914 1 0.29603 0.58889 0.0756385
17915 1 0.28205 0.917964 0.10067
17916 1 0.310153 0.255838 0.100571
18458 1 0.267903 0.746667 0.125549
18460 1 0.296063 0.0847562 0.125552
18464 1 0.267903 0.246667 0.125549
18466 1 0.296063 0.584756 0.125552
17917 1 0.324247 0.426527 0.0756335
17918 1 0.352354 0.764604 0.0756005
17919 1 0.338279 0.093992 0.100549
17920 1 0.380495 0.103148 0.0756345
17921 1 0.366406 0.432386 0.100569
17923 1 0.324247 0.926527 0.0756335
17924 1 0.352354 0.264604 0.0756005
17925 1 0.338279 0.593992 0.100549
17926 1 0.380495 0.603148 0.0756345
17927 1 0.366406 0.932386 0.100569
18469 1 0.324196 0.422878 0.125525
18470 1 0.352326 0.761367 0.125519
18472 1 0.380463 0.10019 0.125527
18475 1 0.324196 0.922878 0.125525
18476 1 0.352326 0.261367 0.125519
18478 1 0.380463 0.60019 0.125527
17922 1 0.394549 0.771091 0.100577
17928 1 0.394549 0.271091 0.100577
17929 1 0.408621 0.441464 0.0755895
17930 1 0.436729 0.779806 0.0755428
17931 1 0.422676 0.109842 0.10055
17935 1 0.408621 0.941464 0.0755895
17936 1 0.436729 0.279806 0.0755428
17937 1 0.422676 0.609842 0.10055
18481 1 0.408601 0.43927 0.125526
18482 1 0.436732 0.778491 0.125515
18487 1 0.408601 0.93927 0.125526
18488 1 0.436732 0.278491 0.125515
17932 1 0.46485 0.118482 0.0755331
17933 1 0.450795 0.448693 0.100527
17934 1 0.478919 0.787739 0.100519
17938 1 0.46485 0.618482 0.0755331
17939 1 0.450795 0.948693 0.100527
17940 1 0.478919 0.287739 0.100519
18484 1 0.464857 0.117859 0.125506
18490 1 0.464857 0.617859 0.125506
17941 1 0.492979 0.457253 0.075529
17947 1 0.492979 0.957253 0.075529
18493 1 0.492982 0.45735 0.1255
18499 1 0.492982 0.95735 0.1255
18988 3 0.127051 0.0554144 0.17526
18994 3 0.127051 0.555414 0.17526
18438 3 0.141124 0.72657 0.15028
18444 3 0.141124 0.226571 0.15028
18447 3 0.169271 0.0631519 0.15028
18453 3 0.169271 0.563151 0.15028
18997 3 0.155198 0.391838 0.17526
18998 1 0.183532 0.728828 0.175549
19003 3 0.155198 0.891839 0.17526
19004 1 0.183532 0.228828 0.175549
18449 1 0.197607 0.400656 0.150549
18450 1 0.225682 0.737339 0.150501
18455 1 0.197607 0.900656 0.150549
18456 1 0.225682 0.237339 0.150501
18459 1 0.253802 0.075067 0.150484
18465 1 0.253802 0.575067 0.150484
19000 1 0.211616 0.0659961 0.175481
19006 1 0.211616 0.565996 0.175481
19009 1 0.239728 0.403272 0.175435
19015 1 0.239728 0.903272 0.175435
18461 1 0.281953 0.413055 0.150486
18462 1 0.3101 0.751359 0.150479
18467 1 0.281953 0.913055 0.150486
18468 1 0.3101 0.251359 0.150479
19010 1 0.267858 0.741098 0.175421
19012 1 0.296 0.0793202 0.175418
19016 1 0.267858 0.241098 0.175421
19018 1 0.296 0.57932 0.175418
18471 1 0.338239 0.0898932 0.150473
18473 1 0.366378 0.42882 0.15048
18477 1 0.338239 0.589893 0.150473
18479 1 0.366378 0.92882 0.15048
19021 1 0.324145 0.417933 0.175422
19022 1 0.352287 0.756957 0.175429
19024 1 0.38043 0.0964358 0.175441
19027 1 0.324145 0.917933 0.175422
19028 1 0.352287 0.256957 0.175429
19030 1 0.38043 0.596436 0.175441
18474 1 0.394518 0.768127 0.150489
18480 1 0.394518 0.268127 0.150489
18483 1 0.422656 0.107715 0.150492
18489 1 0.422656 0.607715 0.150492
19033 1 0.408573 0.436322 0.175454
19034 1 0.436713 0.776524 0.175462
19039 1 0.408573 0.936322 0.175454
19040 1 0.436713 0.276524 0.175462
18485 1 0.450789 0.447496 0.15049
18486 1 0.478919 0.787419 0.150487
18491 1 0.450789 0.947496 0.15049
18492 1 0.478919 0.287419 0.150487
19036 1 0.46485 0.11694 0.175466
19042 1 0.46485 0.61694 0.175466
19045 1 0.492984 0.457471 0.175464
19051 1 0.492984 0.957471 0.175464
18987 3 0.0848298 0.0481895 0.20024
18989 3 0.112977 0.384167 0.20024
18993 3 0.0848298 0.548189 0.20024
18995 3 0.112977 0.884168 0.20024
19537 3 0.0707563 0.377086 0.22522
19538 3 0.0989034 0.71286 0.22522
19540 1 0.12725 0.0496424 0.225471
19543 3 0.0707563 0.877086 0.22522
19544 3 0.0989034 0.21286 0.22522
19546 1 0.12725 0.549642 0.225471
18990 1 0.141091 0.720057 0.200356
18996 1 0.141091 0.220057 0.200356
18999 1 0.16932 0.0570637 0.200396
19005 1 0.16932 0.557064 0.200396
19549 1 0.155326 0.38551 0.225401
19550 1 0.183406 0.721992 0.225329
19555 1 0.155326 0.88551 0.225401
19556 1 0.183406 0.221992 0.225329
19001 1 0.197479 0.394211 0.200413
19002 1 0.225636 0.731395 0.200395
19007 1 0.197479 0.894211 0.200413
19008 1 0.225636 0.231395 0.200395
19011 1 0.253767 0.0689213 0.200367
19017 1 0.253767 0.568921 0.200367
19552 1 0.211545 0.0591137 0.225329
19558 1 0.211545 0.559114 0.225329
19561 1 0.239677 0.396479 0.225314
19567 1 0.239677 0.896479 0.225314
19013 1 0.281904 0.406945 0.200359
19014 1 0.310046 0.745489 0.200361
19019 1 0.281904 0.906945 0.200359
19020 1 0.310046 0.245489 0.200361
19562 1 0.267811 0.73428 0.225302
19564 1 0.295948 0.0726422 0.225299
19568 1 0.267811 0.23428 0.225302
19570 1 0.295948 0.572642 0.225299
19023 1 0.33819 0.0845469 0.20037
19025 1 0.366336 0.424139 0.200385
19029 1 0.33819 0.584547 0.20037
19031 1 0.366336 0.924139 0.200385
19573 1 0.32409 0.411604 0.225305
19574 1 0.352236 0.751209 0.225319
19576 1 0.380386 0.0914709 0.225341
19579 1 0.32409 0.911604 0.225305
19580 1 0.352236 0.251209 0.225319
19582 1 0.380386 0.591471 0.225341
19026 1 0.394484 0.76426 0.200403
19032 1 0.394484 0.26426 0.200403
19035 1 0.42263 0.104846 0.20042
19041 1 0.42263 0.604846 0.20042
19585 1 0.408538 0.432361 0.225366
19586 1 0.436689 0.773784 0.225389
19591 1 0.408538 0.932361 0.225366
19592 1 0.436689 0.273784 0.225389
19037 1 0.450774 0.445779 0.200434
19038 1 0.478915 0.786926 0.20044
19043 1 0.450774 0.945779 0.200434
19044 1 0.478915 0.286926 0.20044
19588 1 0.464838 0.115585 0.225405
19594 1 0.464838 0.615585 0.225405
19597 1 0.492986 0.457587 0.225409
19603 1 0.492986 0.957587 0.225409
19530 3 0.0566827 0.70597 0.2502
19536 3 0.0566827 0.20597 0.2502
20080 3 0.0426091 0.0348687 0.27518
20082 3 0.0566827 0.698878 0.30016
20086 3 0.0426091 0.534868 0.27518
20088 3 0.0566827 0.198878 0.30016
19539 3 0.0848298 0.0415211 0.2502
19541 1 0.113232 0.377562 0.250443
19545 3 0.0848298 0.541521 0.2502
19547 1 0.113232 0.877562 0.250443
20089 3 0.0707563 0.370182 0.27518
20090 1 0.0992357 0.705479 0.275285
20091 1 0.0851418 0.033399 0.300211
20092 1 0.127269 0.04152 0.27531
20093 1 0.113217 0.369263 0.300238
20095 3 0.0707563 0.870183 0.27518
20096 1 0.0992357 0.205479 0.275285
20097 1 0.0851418 0.533399 0.300211
20098 1 0.127269 0.54152 0.27531
20099 1 0.113217 0.869263 0.300238
19542 1 0.14131 0.713777 0.250374
19548 1 0.14131 0.213777 0.250374
19551 1 0.169394 0.0499596 0.250313
19557 1 0.169394 0.54996 0.250313
20094 1 0.141301 0.70534 0.300248
20100 1 0.141301 0.20534 0.300248
20101 1 0.15536 0.377701 0.275293
20102 1 0.183441 0.714096 0.27525
20103 1 0.169381 0.0415234 0.300225
20107 1 0.15536 0.877701 0.275293
20108 1 0.183441 0.214096 0.27525
20109 1 0.169381 0.541523 0.300225
19553 1 0.197486 0.386588 0.250274
19554 1 0.2256 0.723728 0.250261
19559 1 0.197486 0.886588 0.250274
19560 1 0.2256 0.223728 0.250261
19563 1 0.253723 0.061318 0.250249
19569 1 0.253723 0.561318 0.250249
20104 1 0.211535 0.0508581 0.275221
20105 1 0.197472 0.377978 0.300195
20106 1 0.225568 0.714843 0.300167
20110 1 0.211535 0.550858 0.275221
20111 1 0.197472 0.877978 0.300195
20112 1 0.225568 0.214843 0.300167
20113 1 0.239642 0.388124 0.275202
20115 1 0.253672 0.0522232 0.300145
20119 1 0.239642 0.888124 0.275202
20121 1 0.253672 0.552223 0.300145
19565 1 0.281851 0.399433 0.25024
19566 1 0.309986 0.738182 0.25024
19571 1 0.281851 0.899433 0.25024
19572 1 0.309986 0.238182 0.25024
20114 1 0.267758 0.725925 0.275188
20116 1 0.295884 0.0643565 0.275179
20117 1 0.281785 0.390232 0.300128
20118 1 0.309909 0.728998 0.300118
20120 1 0.267758 0.225925 0.275188
20122 1 0.295884 0.564357 0.275179
20123 1 0.281785 0.890232 0.300128
20124 1 0.309909 0.228998 0.300118
19575 1 0.338129 0.0776552 0.25025
19577 1 0.366279 0.417919 0.25027
19581 1 0.338129 0.577655 0.25025
19583 1 0.366279 0.917919 0.25027
20135 1 0.366193 0.909455 0.300136
20134 1 0.380319 0.584676 0.27522
20133 1 0.338044 0.56868 0.30012
20125 1 0.324019 0.40355 0.275181
20126 1 0.352164 0.743626 0.275194
20127 1 0.338044 0.0686804 0.30012
20128 1 0.380319 0.0846763 0.27522
20129 1 0.366193 0.409455 0.300136
20131 1 0.324019 0.90355 0.275181
20132 1 0.352164 0.243626 0.275194
20145 1 0.422529 0.594852 0.300211
20144 1 0.436649 0.269754 0.275293
20143 1 0.408481 0.926739 0.275256
19578 1 0.394434 0.758987 0.250299
20139 1 0.422529 0.0948517 0.300211
19584 1 0.394434 0.258987 0.250299
20138 1 0.436649 0.769754 0.275293
20137 1 0.408481 0.426739 0.275256
19587 1 0.422592 0.100812 0.25033
20136 1 0.394355 0.251489 0.300168
19593 1 0.422592 0.600812 0.25033
20130 1 0.394355 0.751489 0.300168
20148 1 0.478896 0.284877 0.300277
20147 1 0.450711 0.93943 0.300252
20146 1 0.464818 0.613516 0.275321
20142 1 0.478896 0.784877 0.300277
20141 1 0.450711 0.43943 0.300252
20140 1 0.464818 0.113516 0.275321
19589 1 0.450751 0.443264 0.250357
19590 1 0.478908 0.786128 0.250372
19595 1 0.450751 0.943264 0.250357
19596 1 0.478908 0.286128 0.250372
20149 1 0.492988 0.457687 0.27533
20155 1 0.492988 0.957687 0.27533
21190 3 0.0426091 0.519896 0.3751
21188 3 0.014462 0.185454 0.3751
21184 3 0.0426091 0.0198967 0.3751
21182 3 0.014462 0.685453 0.3751
20640 3 0.0566827 0.191201 0.35012
20639 3 0.0285356 0.856487 0.35012
20638 3 0.0426091 0.527636 0.32514
20634 3 0.0566827 0.691201 0.35012
20633 3 0.0285356 0.356486 0.35012
20632 3 0.0426091 0.0276366 0.32514
21202 1 0.127169 0.523941 0.375091
21200 1 0.0990796 0.188837 0.375067
21199 1 0.0710942 0.854219 0.375122
21196 1 0.127169 0.0239412 0.375091
21194 1 0.0990796 0.688837 0.375067
21193 1 0.0710942 0.354219 0.375122
20651 1 0.1131 0.861053 0.350119
20650 1 0.127208 0.533083 0.325192
20649 1 0.0849859 0.525979 0.350086
20648 1 0.0991203 0.197531 0.325164
20647 1 0.0708372 0.862986 0.325052
20645 1 0.1131 0.361053 0.350119
20644 1 0.127208 0.0330831 0.325192
20643 1 0.0849859 0.0259788 0.350086
20642 1 0.0991203 0.697531 0.325164
20641 1 0.0708372 0.362986 0.325052
21212 1 0.183366 0.194945 0.37509
21211 1 0.155267 0.859335 0.375099
21206 1 0.183366 0.694945 0.37509
21205 1 0.155267 0.359335 0.375099
20661 1 0.169328 0.5322 0.350136
20660 1 0.183402 0.205077 0.325169
20659 1 0.155305 0.868952 0.32519
20655 1 0.169328 0.0321996 0.350136
20654 1 0.183402 0.705077 0.325169
20653 1 0.155305 0.368952 0.32519
20652 1 0.141221 0.196462 0.350142
20646 1 0.141221 0.696462 0.350142
21223 1 0.239552 0.86717 0.375042
21217 1 0.239552 0.36717 0.375042
21214 1 0.21146 0.530855 0.375069
21208 1 0.21146 0.0308546 0.375069
20673 1 0.253617 0.541546 0.350061
20671 1 0.239593 0.878439 0.325114
20667 1 0.253617 0.0415465 0.350061
20665 1 0.239593 0.378439 0.325114
20664 1 0.225522 0.204637 0.35009
20663 1 0.197427 0.868222 0.350117
20662 1 0.211496 0.541531 0.325141
20658 1 0.225522 0.704637 0.35009
20657 1 0.197427 0.368222 0.350117
20656 1 0.211496 0.0415314 0.325141
21226 1 0.295735 0.541566 0.374979
21224 1 0.267642 0.204011 0.375011
21220 1 0.295735 0.0415662 0.374979
21218 1 0.267642 0.704011 0.375011
20676 1 0.309821 0.217481 0.350008
20675 1 0.281715 0.879102 0.350032
20674 1 0.295806 0.554136 0.325068
20672 1 0.267695 0.215923 0.325088
20670 1 0.309821 0.717481 0.350008
20669 1 0.281715 0.379102 0.350032
20668 1 0.295806 0.054136 0.325068
20666 1 0.267695 0.715923 0.325088
21238 1 0.380078 0.56134 0.374917
21236 1 0.351946 0.219821 0.374926
21235 1 0.323834 0.880058 0.374949
21232 1 0.380078 0.06134 0.374917
21230 1 0.351946 0.719821 0.374926
21229 1 0.323834 0.380058 0.374949
20687 1 0.366074 0.897767 0.349989
20686 1 0.380217 0.575098 0.325075
20685 1 0.337939 0.556924 0.349992
20684 1 0.352063 0.233467 0.325057
20683 1 0.323927 0.893241 0.325056
20681 1 0.366074 0.397767 0.34999
20680 1 0.380217 0.0750985 0.325075
20679 1 0.337939 0.0569238 0.349992
20678 1 0.352063 0.733467 0.325057
20677 1 0.323927 0.393241 0.325056
21248 1 0.436455 0.252728 0.374972
21247 1 0.408244 0.905327 0.374929
21242 1 0.436455 0.752729 0.374972
21241 1 0.408244 0.405328 0.374929
20697 1 0.422424 0.585455 0.350048
20696 1 0.436581 0.263508 0.325161
20695 1 0.40839 0.918407 0.325112
20691 1 0.422424 0.0854545 0.350048
20690 1 0.436581 0.763509 0.325161
20689 1 0.40839 0.418407 0.325112
20688 1 0.394234 0.240457 0.350007
20682 1 0.394234 0.740456 0.350007
21250 1 0.464711 0.604039 0.375034
21244 1 0.464711 0.10404 0.375034
20700 1 0.47887 0.282685 0.350143
20699 1 0.450639 0.933016 0.350104
20698 1 0.464783 0.610199 0.325204
20694 1 0.47887 0.782684 0.350143
20693 1 0.450639 0.433016 0.350104
20692 1 0.464783 0.110199 0.325204
21259 1 0.492988 0.958016 0.37506
21253 1 0.492988 0.458017 0.37506
20707 1 0.492989 0.957845 0.32522
20701 1 0.492989 0.457845 0.32522
21742 1 0.0426604 0.512738 0.424984
21740 3 0.014462 0.177748 0.42506
21736 1 0.0426604 0.0127378 0.424984
21734 3 0.014462 0.677748 0.42506
21192 1 0.0570045 0.182397 0.400112
21191 3 0.0285356 0.848739 0.40008
21186 1 0.0570045 0.682397 0.400112
21185 3 0.0285356 0.348738 0.40008
21754 1 0.127185 0.51415 0.425044
21752 1 0.0990955 0.179789 0.425051
21751 1 0.0710015 0.845719 0.425053
21748 1 0.127185 0.0141501 0.425044
21746 1 0.0990955 0.679789 0.425051
21745 1 0.0710015 0.345719 0.425053
21203 1 0.113143 0.851663 0.400064
21201 1 0.0850783 0.517056 0.40008
21197 1 0.113143 0.351663 0.400064
21195 1 0.0850783 0.0170564 0.40008
21764 1 0.183375 0.183656 0.425029
21763 1 0.15528 0.8488 0.425039
21758 1 0.183375 0.683656 0.425029
21757 1 0.15528 0.3488 0.425039
21213 1 0.169318 0.521758 0.400062
21207 1 0.169318 0.0217577 0.400062
21204 1 0.141223 0.186589 0.400066
21198 1 0.141223 0.686589 0.400066
21775 1 0.239556 0.854118 0.424989
21769 1 0.239556 0.354118 0.424989
21766 1 0.211468 0.518744 0.425013
21760 1 0.211468 0.0187437 0.425013
21225 1 0.25359 0.528978 0.399998
21219 1 0.25359 0.028978 0.399998
21216 1 0.225502 0.192864 0.400027
21215 1 0.197412 0.857158 0.400049
21210 1 0.225502 0.692864 0.400027
21209 1 0.197412 0.357158 0.400049
21778 1 0.295721 0.526231 0.424926
21776 1 0.267641 0.189894 0.42496
21772 1 0.295721 0.0262307 0.424926
21770 1 0.267641 0.689894 0.42496
21228 1 0.30976 0.203095 0.39993
21227 1 0.281675 0.865652 0.399965
21222 1 0.30976 0.703095 0.39993
21221 1 0.281675 0.365652 0.399965
21790 1 0.379953 0.541615 0.424803
21788 1 0.351872 0.201623 0.424847
21787 1 0.323797 0.863355 0.424888
21784 1 0.379953 0.0416155 0.424803
21782 1 0.351872 0.701623 0.424847
21781 1 0.323797 0.363355 0.424888
21239 1 0.365949 0.881576 0.399862
21237 1 0.337849 0.541587 0.399894
21233 1 0.365949 0.381576 0.399862
21231 1 0.337849 0.041587 0.399894
21800 1 0.4362 0.23208 0.42471
21799 1 0.408051 0.884317 0.424758
21794 1 0.4362 0.732081 0.42471
21793 1 0.408051 0.384318 0.424758
21249 1 0.422237 0.56939 0.399835
21243 1 0.422237 0.0693896 0.399835
21240 1 0.394072 0.223764 0.399839
21234 1 0.394072 0.723764 0.399839
21802 1 0.464513 0.589715 0.424748
21796 1 0.464513 0.089716 0.424748
21252 1 0.478812 0.27799 0.399944
21251 1 0.450482 0.920525 0.399876
21246 1 0.478812 0.777988 0.399944
21245 1 0.450482 0.420524 0.399876
21811 1 0.492985 0.95817 0.424836
21805 1 0.492985 0.458171 0.424836
21744 1 0.0569967 0.174229 0.450022
21743 3 0.0285356 0.840684 0.45004
21741 3 0.00038843 0.506939 0.45004
21738 1 0.0569967 0.674229 0.450022
21737 3 0.0285356 0.340684 0.45004
21735 3 0.00038843 0.00693922 0.45004
22286 3 0.014462 0.669828 0.47502
22287 3 0.00038843 0.999192 0.5
22288 1 0.0429036 0.00276645 0.475071
22289 3 0.0285356 0.332476 0.5
22290 1 0.0570744 0.66512 0.499994
22292 3 0.014462 0.169829 0.47502
22293 3 0.00038843 0.499191 0.5
22294 1 0.0429036 0.502766 0.475071
22295 3 0.0285356 0.832477 0.5
22296 1 0.0570744 0.16512 0.499994
21755 1 0.11315 0.841978 0.450022
21753 1 0.0850467 0.508001 0.450017
21749 1 0.11315 0.341978 0.450022
21747 1 0.0850467 0.00800082 0.450017
22297 1 0.0710253 0.336408 0.474999
22298 1 0.0991246 0.670027 0.474999
22299 1 0.0851077 0.998333 0.499988
22300 1 0.127218 0.00377083 0.474998
22301 1 0.113192 0.331739 0.499982
22303 1 0.0710253 0.836408 0.474999
22304 1 0.0991246 0.170027 0.474999
22305 1 0.0851077 0.498333 0.499988
22306 1 0.127218 0.503771 0.474998
22307 1 0.113192 0.831739 0.499982
21765 1 0.169346 0.510452 0.45001
21759 1 0.169346 0.0104516 0.45001
21756 1 0.141247 0.17614 0.450018
21750 1 0.141247 0.67614 0.450018
22302 1 0.141293 0.665173 0.499974
22308 1 0.141293 0.165173 0.499974
22309 1 0.15532 0.33761 0.474992
22310 1 0.183422 0.671507 0.474982
22311 1 0.169399 0.998569 0.499964
22315 1 0.15532 0.83761 0.474992
22316 1 0.183422 0.171507 0.474982
22317 1 0.169399 0.498569 0.499964
21777 1 0.253626 0.514457 0.449956
21771 1 0.253626 0.0144573 0.449956
21768 1 0.225536 0.179571 0.44998
21767 1 0.197443 0.844924 0.449998
21762 1 0.225536 0.679571 0.44998
21761 1 0.197443 0.344924 0.449998
22312 1 0.211522 0.00547098 0.474968
22313 1 0.197507 0.331921 0.499953
22314 1 0.225614 0.665228 0.499939
22318 1 0.211522 0.505471 0.474968
22319 1 0.197507 0.831921 0.499953
22320 1 0.225614 0.165228 0.499939
22321 1 0.23962 0.339517 0.47495
22323 1 0.253719 0.998487 0.499922
22327 1 0.23962 0.839517 0.47495
22329 1 0.253719 0.498487 0.499922
21780 1 0.309787 0.185409 0.449895
21779 1 0.28171 0.849688 0.449928
21774 1 0.309787 0.685409 0.449895
21773 1 0.28171 0.349688 0.449928
22322 1 0.267714 0.673702 0.474928
22324 1 0.295802 0.00807886 0.474903
22325 1 0.281822 0.331693 0.499904
22326 1 0.309921 0.664797 0.499886
22328 1 0.267714 0.173702 0.474928
22330 1 0.295802 0.508079 0.474903
22331 1 0.281822 0.831693 0.499904
22332 1 0.309921 0.164797 0.499886
21791 1 0.365915 0.859467 0.449814
21789 1 0.337856 0.521862 0.449858
21785 1 0.365915 0.359467 0.449814
21783 1 0.337856 0.0218612 0.449858
22333 1 0.323882 0.342746 0.474876
22334 1 0.351949 0.677905 0.474846
22335 1 0.338012 0.997779 0.499871
22336 1 0.379994 0.0138748 0.474811
22337 1 0.366092 0.330539 0.499859
22339 1 0.323882 0.842745 0.474876
22340 1 0.351949 0.177905 0.474846
22341 1 0.338012 0.497779 0.499871
22342 1 0.379994 0.513874 0.474811
22343 1 0.366092 0.830539 0.499859
21801 1 0.42201 0.541647 0.449684
21795 1 0.42201 0.0416472 0.449684
21792 1 0.393965 0.198947 0.44976
21786 1 0.393965 0.698946 0.44976
22338 1 0.394152 0.662776 0.499855
22344 1 0.394152 0.162776 0.499855
22345 1 0.407999 0.351215 0.474764
22346 1 0.435963 0.691199 0.474695
22347 1 0.422189 0.993615 0.49987
22351 1 0.407999 0.851215 0.474764
22352 1 0.435963 0.191198 0.474695
22353 1 0.422189 0.493617 0.49987
21804 1 0.478612 0.262664 0.449635
21803 1 0.450124 0.892126 0.44956
21798 1 0.478612 0.762664 0.449635
21797 1 0.450124 0.392124 0.44956
22348 1 0.464015 0.04167 0.474534
22349 1 0.450271 0.320695 0.499937
22363 1 0.492982 0.958338 0.474586
22354 1 0.464015 0.54167 0.474534
22355 1 0.450271 0.820694 0.499937
22357 1 0.492982 0.458338 0.474586
22838 3 0.014462 0.661845 0.52498
22839 3 0.00038843 0.991459 0.54996
22840 1 0.0429101 0.9942 0.524916
22841 3 0.0285356 0.324286 0.54996
22842 1 0.0570144 0.656577 0.549961
22844 3 0.014462 0.161846 0.52498
22845 3 0.00038843 0.491459 0.54996
22846 1 0.0429101 0.4942 0.524916
22847 3 0.0285356 0.824287 0.54996
22848 1 0.0570144 0.156577 0.549961
22849 1 0.0710417 0.327259 0.524984
22850 1 0.0991513 0.660227 0.52497
22851 1 0.0850859 0.989122 0.549956
22852 1 0.127256 0.993221 0.524957
22853 1 0.113212 0.321756 0.549936
22855 1 0.0710417 0.827259 0.524984
22856 1 0.0991513 0.160227 0.52497
22857 1 0.0850859 0.489122 0.549956
22858 1 0.127256 0.493221 0.524957
22859 1 0.113212 0.821756 0.549936
22854 1 0.141332 0.654311 0.549926
22860 1 0.141332 0.154311 0.549926
22861 1 0.15537 0.326166 0.524946
22862 1 0.183485 0.658996 0.524935
22863 1 0.169453 0.986705 0.549915
22867 1 0.15537 0.826166 0.524946
22868 1 0.183485 0.158996 0.524935
22869 1 0.169453 0.486705 0.549915
22864 1 0.2116 0.991679 0.524924
22865 1 0.197574 0.318894 0.549905
22866 1 0.225697 0.65081 0.549894
22870 1 0.2116 0.491679 0.524924
22871 1 0.197574 0.818894 0.549905
22872 1 0.225697 0.15081 0.549894
22873 1 0.239716 0.32418 0.52491
22875 1 0.253822 0.982379 0.549883
22879 1 0.239716 0.82418 0.52491
22881 1 0.253822 0.482379 0.549883
22874 1 0.267831 0.656446 0.524896
22876 1 0.295945 0.988357 0.524885
22877 1 0.281947 0.313458 0.549874
22878 1 0.310072 0.643811 0.549873
22880 1 0.267831 0.156446 0.524896
22882 1 0.295945 0.488357 0.524885
22883 1 0.281947 0.813458 0.549874
22884 1 0.310072 0.143811 0.549873
22885 1 0.324058 0.319728 0.524879
22886 1 0.352167 0.650254 0.524882
22887 1 0.338195 0.973075 0.549883
22888 1 0.380272 0.979267 0.524903
22889 1 0.366316 0.300627 0.549914
22891 1 0.324058 0.819728 0.524879
22892 1 0.352167 0.150254 0.524882
22893 1 0.338195 0.473076 0.549883
22894 1 0.380272 0.479268 0.524903
22895 1 0.366316 0.800627 0.549914
22890 1 0.394433 0.625332 0.549983
22896 1 0.394433 0.125333 0.549983
22897 1 0.408376 0.305353 0.524961
22898 1 0.436499 0.625202 0.525092
22899 1 0.422548 0.945185 0.550119
22903 1 0.408376 0.805352 0.524961
22904 1 0.436499 0.125203 0.525092
22905 1 0.422548 0.445185 0.550119
22900 1 0.46464 0.929595 0.525447
22901 1 0.450656 0.256803 0.550405
22902 1 0.478816 0.559112 0.550768
22906 1 0.46464 0.429592 0.525447
22907 1 0.450656 0.756803 0.550406
22908 1 0.478816 0.0591139 0.550767
22909 1 0.492977 0.20854 0.525949
22915 1 0.492977 0.708543 0.525949
22356 1 0.478542 0.125059 0.500215
22350 1 0.478542 0.625059 0.500215
23390 3 0.014462 0.653958 0.57494
23392 1 0.0426786 0.987022 0.574999
23393 3 0.0285356 0.316284 0.59992
23394 1 0.0570285 0.647598 0.599869
23396 3 0.014462 0.153959 0.57494
23398 1 0.0426786 0.487022 0.574999
23399 3 0.0285356 0.816285 0.59992
23400 1 0.0570285 0.147598 0.599869
23942 3 0.014462 0.646315 0.6249
23944 3 0.0426091 0.978454 0.6249
23948 3 0.014462 0.146315 0.6249
23950 3 0.0426091 0.478454 0.6249
23401 1 0.0710403 0.318517 0.574922
23402 1 0.0991667 0.650746 0.574908
23403 1 0.0851391 0.979991 0.599879
23404 1 0.127286 0.98295 0.574904
23405 1 0.113245 0.312059 0.59988
23407 1 0.0710403 0.818517 0.574922
23408 1 0.0991667 0.150746 0.574908
23409 1 0.0851391 0.479991 0.599879
23410 1 0.127286 0.48295 0.574904
23411 1 0.113245 0.812059 0.59988
23953 1 0.0711229 0.309963 0.624837
23954 1 0.0991649 0.641692 0.624863
23956 1 0.127287 0.973324 0.624856
23959 1 0.0711229 0.809963 0.624837
23960 1 0.0991649 0.141692 0.624863
23962 1 0.127287 0.473324 0.624856
23406 1 0.141356 0.643887 0.599876
23412 1 0.141356 0.143887 0.599876
23413 1 0.15541 0.315021 0.574895
23414 1 0.183535 0.646837 0.574884
23415 1 0.169482 0.975453 0.599865
23419 1 0.15541 0.815021 0.574895
23420 1 0.183535 0.146838 0.574884
23421 1 0.169482 0.475453 0.599865
23965 1 0.155412 0.304685 0.624846
23966 1 0.183546 0.635693 0.624833
23971 1 0.155412 0.804685 0.624846
23972 1 0.183546 0.135693 0.624832
23416 1 0.211662 0.978331 0.574874
23417 1 0.197612 0.306659 0.599853
23418 1 0.225745 0.637422 0.599844
23422 1 0.211662 0.478331 0.574874
23423 1 0.197612 0.806659 0.599853
23424 1 0.225745 0.137422 0.599844
23425 1 0.239792 0.309412 0.574864
23427 1 0.253881 0.967635 0.599837
23431 1 0.239792 0.809412 0.574864
23433 1 0.253881 0.467635 0.599837
23968 1 0.211683 0.966265 0.624821
23974 1 0.211683 0.466265 0.624821
23977 1 0.239821 0.296297 0.624814
23983 1 0.239821 0.796297 0.624814
23426 1 0.267924 0.639953 0.574858
23428 1 0.296056 0.969726 0.574858
23429 1 0.282016 0.297114 0.599837
23430 1 0.310148 0.625584 0.599851
23432 1 0.267924 0.139953 0.574858
23434 1 0.296056 0.469726 0.574858
23435 1 0.282016 0.797114 0.599837
23436 1 0.310148 0.125584 0.599851
23978 1 0.267958 0.625656 0.624814
23980 1 0.296093 0.954133 0.624825
23984 1 0.267958 0.125656 0.624814
23986 1 0.296093 0.454133 0.624825
23437 1 0.324186 0.298398 0.574871
23438 1 0.352312 0.625469 0.574905
23439 1 0.338277 0.952667 0.599884
23440 1 0.380433 0.950178 0.574972
23441 1 0.366398 0.277866 0.599945
23443 1 0.324186 0.798398 0.574871
23444 1 0.352312 0.125469 0.574905
23445 1 0.338277 0.452666 0.599884
23446 1 0.380433 0.450177 0.574972
23447 1 0.366398 0.777866 0.599945
23989 1 0.324222 0.281444 0.624855
23990 1 0.352344 0.607262 0.624909
23992 1 0.380459 0.93123 0.624995
23995 1 0.324222 0.781444 0.624855
23996 1 0.352344 0.107262 0.624909
23998 1 0.380459 0.431231 0.624995
23442 1 0.394511 0.600562 0.600046
23448 1 0.394511 0.100562 0.600046
23449 1 0.408546 0.271407 0.575091
23450 1 0.436651 0.58778 0.575297
23451 1 0.422617 0.920153 0.6002
23455 1 0.408546 0.771408 0.575091
23456 1 0.436651 0.0877784 0.575297
23457 1 0.422617 0.420153 0.6002
24001 1 0.408568 0.25306 0.625116
24002 1 0.436683 0.572809 0.62526
24007 1 0.408568 0.753059 0.625116
24008 1 0.436683 0.0728106 0.62526
23452 1 0.464776 0.899224 0.575554
23453 1 0.450735 0.2367 0.600386
23454 1 0.478887 0.551513 0.600513
23458 1 0.464776 0.399227 0.575554
23459 1 0.450735 0.736701 0.600386
23460 1 0.478887 0.0515111 0.600514
24004 1 0.464818 0.891125 0.625382
24010 1 0.464818 0.391123 0.625382
23461 1 0.492974 0.20868 0.575659
23467 1 0.492973 0.708675 0.575659
24013 1 0.492971 0.20885 0.62543
24019 1 0.492971 0.708853 0.62543
23945 3 0.0285356 0.308616 0.64988
23946 3 0.0566827 0.640489 0.64988
23951 3 0.0285356 0.808617 0.64988
23952 3 0.0566827 0.140489 0.64988
24496 3 0.0426091 0.970813 0.67486
24502 3 0.0426091 0.470813 0.67486
23955 1 0.0850556 0.972067 0.649809
23957 1 0.11318 0.303366 0.649831
23961 1 0.0850556 0.472067 0.649809
23963 1 0.11318 0.803366 0.649831
24505 1 0.0707996 0.30236 0.674847
24506 1 0.0991175 0.633674 0.67477
24508 1 0.127233 0.964712 0.674794
24511 1 0.0707996 0.80236 0.674847
24512 1 0.0991175 0.133674 0.67477
24514 1 0.127233 0.464712 0.674794
23958 1 0.141327 0.634492 0.649822
23964 1 0.141327 0.134492 0.649822
23967 1 0.169467 0.965336 0.649812
23973 1 0.169467 0.465336 0.649812
24517 1 0.155382 0.295468 0.674786
24518 1 0.183524 0.625866 0.674775
24523 1 0.155382 0.795468 0.674786
24524 1 0.183524 0.125866 0.674775
23969 1 0.197609 0.295789 0.649798
23970 1 0.225749 0.625753 0.649789
23975 1 0.197609 0.795789 0.649798
23976 1 0.225749 0.125753 0.649789
23979 1 0.253888 0.955101 0.649787
23985 1 0.253888 0.455101 0.649787
24520 1 0.211669 0.955829 0.674763
24526 1 0.211669 0.455829 0.674763
24529 1 0.239811 0.285247 0.674758
24535 1 0.239811 0.785247 0.674758
23981 1 0.282025 0.283687 0.649796
23982 1 0.310155 0.611302 0.649821
23987 1 0.282025 0.783687 0.649796
23988 1 0.310155 0.111302 0.649821
24530 1 0.267949 0.613999 0.674764
24532 1 0.296083 0.941936 0.674784
24536 1 0.267949 0.113999 0.674764
24538 1 0.296083 0.441936 0.674784
23991 1 0.33828 0.937724 0.649868
23993 1 0.366398 0.262735 0.64994
23997 1 0.33828 0.437724 0.649868
23999 1 0.366398 0.762735 0.64994
24541 1 0.32421 0.268899 0.674823
24542 1 0.352331 0.594751 0.674884
24544 1 0.380448 0.919412 0.674965
24547 1 0.32421 0.768899 0.674823
24548 1 0.352331 0.0947513 0.674884
24550 1 0.380448 0.419411 0.674965
24560 1 0.43669 0.0654547 0.675157
24559 1 0.408565 0.742912 0.675062
23994 1 0.394511 0.586182 0.650039
24000 1 0.394511 0.0861815 0.650039
24003 1 0.422626 0.908112 0.650155
24009 1 0.422626 0.408113 0.650155
24553 1 0.408565 0.242912 0.675062
24554 1 0.43669 0.565455 0.675157
24562 1 0.464826 0.387375 0.675229
24556 1 0.464826 0.887374 0.675229
24005 1 0.450753 0.228869 0.650264
24006 1 0.478895 0.548973 0.650331
24011 1 0.450753 0.728868 0.650264