ITEM: TIMESTEP
42
ITEM: NUMBER OF ATOMS
2346
ITEM: BOX BOUNDS ss pp ss
-4.1409160050000004e+01 4.1409147969000003e+01
-4.1208122699999999e-01 4.5329187729999996e+00
-4.0239876534000004e+01 4.0576319157000000e+01
ITEM: ATOMS id type xs ys zs
17355 3 0.253713 0.0841399 0.0503597
17361 3 0.253713 0.584139 0.0503597
17356 3 0.295933 0.0918453 0.0253797
17357 3 0.28186 0.421471 0.0503597
17358 3 0.310007 0.759014 0.0503597
17362 3 0.295933 0.591845 0.0253797
17363 3 0.28186 0.921471 0.0503597
17364 3 0.310007 0.259014 0.0503597
16817 3 0.366301 0.436949 0.00039968
16823 3 0.366301 0.936949 0.00039968
17365 3 0.32408 0.42933 0.0253797
17366 3 0.352228 0.766988 0.0253797
17367 3 0.338154 0.0967595 0.0503597
17368 3 0.380375 0.104801 0.0253797
17369 1 0.366392 0.435871 0.0506837
17371 3 0.32408 0.929331 0.0253797
17372 3 0.352228 0.266988 0.0253797
17373 3 0.338154 0.596759 0.0503597
17374 3 0.380375 0.604801 0.0253797
17375 1 0.366392 0.935871 0.0506837
16818 3 0.394448 0.774631 0.00039968
16824 3 0.394448 0.274631 0.00039968
16827 3 0.422595 0.112419 0.00039968
16833 3 0.422595 0.612419 0.00039968
17370 1 0.394558 0.773394 0.0507112
17376 1 0.394558 0.273394 0.0507112
17377 3 0.408522 0.442749 0.0253797
17378 3 0.436669 0.780805 0.0253797
17379 1 0.422636 0.111235 0.0505811
17383 3 0.408522 0.942749 0.0253797
17384 3 0.436669 0.280806 0.0253797
17385 1 0.422636 0.611235 0.0505811
16829 3 0.450743 0.450287 0.00039968
16830 3 0.47889 0.788209 0.00039968
16835 3 0.450743 0.950287 0.00039968
16836 3 0.47889 0.288209 0.00039968
17380 1 0.464818 0.118998 0.0254234
17381 1 0.450755 0.44954 0.0505778
17382 1 0.47889 0.788003 0.050591
17386 1 0.464818 0.618998 0.0254234
17387 1 0.450755 0.94954 0.0505778
17388 1 0.47889 0.288003 0.050591
17389 1 0.492961 0.457203 0.0254284
17395 1 0.492961 0.957203 0.0254284
18445 3 0.155198 0.397946 0.1253
18446 3 0.183345 0.734651 0.1253
18451 3 0.155198 0.897946 0.1253
18452 3 0.183345 0.234652 0.1253
17896 3 0.211492 0.0764195 0.0753397
17897 3 0.197418 0.405625 0.10032
17898 3 0.225565 0.742677 0.10032
17902 3 0.211492 0.576419 0.0753397
17903 3 0.197418 0.905626 0.10032
17904 3 0.225565 0.242677 0.10032
17905 3 0.239639 0.413517 0.0753397
17907 1 0.253901 0.0805688 0.100556
17911 3 0.239639 0.913517 0.0753397
17913 1 0.253901 0.580569 0.100556
18448 1 0.211453 0.0706145 0.125383
18454 1 0.211453 0.570614 0.125383
18457 1 0.23978 0.409095 0.125588
18463 1 0.23978 0.909095 0.125588
17906 3 0.267786 0.750854 0.0753397
17908 1 0.296022 0.0891445 0.0756398
17909 1 0.282045 0.418223 0.100672
17910 1 0.310143 0.756118 0.100573
17912 3 0.267786 0.250855 0.0753397
17914 1 0.296022 0.589145 0.0756398
17915 1 0.282045 0.918223 0.100672
17916 1 0.310143 0.256118 0.100573
18458 1 0.2679 0.74692 0.125551
18460 1 0.296057 0.085026 0.125554
18464 1 0.2679 0.24692 0.125551
18466 1 0.296057 0.585026 0.125554
17917 1 0.324226 0.42684 0.075634
17918 1 0.352322 0.764898 0.0755809
17919 1 0.338264 0.0942895 0.100543
17920 1 0.380468 0.103398 0.0756212
17921 1 0.366386 0.432632 0.100555
17923 1 0.324226 0.92684 0.075634
17924 1 0.352322 0.264898 0.0755809
17925 1 0.338264 0.59429 0.100543
17926 1 0.380468 0.603398 0.0756212
17927 1 0.366386 0.932632 0.100555
18469 1 0.324189 0.423167 0.125523
18470 1 0.352315 0.761632 0.125513
18472 1 0.380449 0.100413 0.125517
18475 1 0.324189 0.923167 0.125523
18476 1 0.352315 0.261632 0.125513
18478 1 0.380449 0.600413 0.125517
17922 1 0.394529 0.771314 0.100565
17928 1 0.394529 0.271314 0.100565
17929 1 0.408602 0.441673 0.0755781
17930 1 0.43671 0.779934 0.0755308
17931 1 0.422657 0.110014 0.10054
17935 1 0.408602 0.941673 0.075578
17936 1 0.43671 0.279934 0.0755308
17937 1 0.422657 0.610014 0.10054
18481 1 0.408585 0.439453 0.125517
18482 1 0.436713 0.778616 0.125509
18487 1 0.408585 0.939453 0.125517
18488 1 0.436713 0.278616 0.125509
17932 1 0.464829 0.11853 0.0755259
17933 1 0.450775 0.448797 0.100521
17934 1 0.478896 0.787778 0.100518
17938 1 0.464829 0.61853 0.0755259
17939 1 0.450775 0.948797 0.100521
17940 1 0.478896 0.287778 0.100518
18484 1 0.464837 0.117922 0.125504
18490 1 0.464837 0.617922 0.125504
17941 1 0.492956 0.457268 0.0755309
17947 1 0.492956 0.957268 0.0755309
18493 1 0.49296 0.457345 0.125505
18499 1 0.49296 0.957345 0.125505
18988 3 0.127051 0.0557955 0.17526
18994 3 0.127051 0.555795 0.17526
18438 3 0.141124 0.726929 0.15028
18444 3 0.141124 0.226929 0.15028
18447 3 0.169271 0.0635108 0.15028
18453 3 0.169271 0.56351 0.15028
18997 3 0.155198 0.392223 0.17526
18998 1 0.18355 0.728971 0.175546
19003 3 0.155198 0.892224 0.17526
19004 1 0.18355 0.228971 0.175546
18449 1 0.19761 0.400918 0.150548
18450 1 0.225685 0.737572 0.150501
18455 1 0.19761 0.900918 0.150548
18456 1 0.225685 0.237572 0.150501
18459 1 0.253803 0.0752941 0.150485
18465 1 0.253803 0.575294 0.150485
19000 1 0.211628 0.0661407 0.175481
19006 1 0.211628 0.566141 0.175481
19009 1 0.239734 0.403432 0.175437
19015 1 0.239734 0.903432 0.175437
18461 1 0.281952 0.413295 0.150488
18462 1 0.310097 0.751621 0.15048
18467 1 0.281952 0.913295 0.150488
18468 1 0.310097 0.251621 0.15048
19010 1 0.26786 0.741287 0.175424
19012 1 0.295998 0.079533 0.17542
19016 1 0.26786 0.241287 0.175424
19018 1 0.295998 0.579533 0.17542
18471 1 0.338233 0.0901502 0.150471
18473 1 0.366369 0.42904 0.150474
18477 1 0.338233 0.59015 0.150471
18479 1 0.366369 0.92904 0.150474
19021 1 0.324141 0.418152 0.175422
19022 1 0.352282 0.75716 0.175427
19024 1 0.380422 0.0966025 0.175437
19027 1 0.324141 0.918152 0.175422
19028 1 0.352282 0.25716 0.175427
19030 1 0.380422 0.596602 0.175437
18474 1 0.394507 0.768303 0.150483
18480 1 0.394507 0.268303 0.150483
18483 1 0.422642 0.107843 0.150487
18489 1 0.422642 0.607843 0.150487
19033 1 0.408562 0.436445 0.175451
19034 1 0.436698 0.776591 0.175461
19039 1 0.408562 0.936445 0.175451
19040 1 0.436698 0.276591 0.175461
18485 1 0.450772 0.447567 0.150489
18486 1 0.478899 0.787428 0.15049
18491 1 0.450772 0.947567 0.150489
18492 1 0.478899 0.287428 0.15049
19036 1 0.464832 0.116949 0.175469
19042 1 0.464832 0.616949 0.175469
19045 1 0.492964 0.457429 0.175472
19051 1 0.492964 0.957429 0.175472
18989 3 0.112977 0.38457 0.20024
18995 3 0.112977 0.88457 0.20024
19537 3 0.0707563 0.377495 0.22522
19538 3 0.0989034 0.713281 0.22522
19540 1 0.127022 0.0483813 0.225357
19543 3 0.0707563 0.877496 0.22522
19544 3 0.0989034 0.213281 0.22522
19546 1 0.127022 0.548381 0.225357
18990 1 0.141154 0.719383 0.200331
18996 1 0.141154 0.219383 0.200331
18999 1 0.169395 0.0568178 0.200409
19005 1 0.169395 0.556818 0.200409
19549 1 0.155264 0.385085 0.225376
19550 1 0.183386 0.721944 0.225338
19555 1 0.155264 0.885085 0.225376
19556 1 0.183386 0.221944 0.225338
19001 1 0.197508 0.394152 0.20042
19002 1 0.225646 0.731459 0.200401
19007 1 0.197508 0.894152 0.20042
19008 1 0.225646 0.231459 0.200401
19011 1 0.25377 0.0690592 0.200372
19017 1 0.25377 0.569059 0.200372
19552 1 0.21154 0.0591774 0.225338
19558 1 0.21154 0.559177 0.225338
19561 1 0.239675 0.39661 0.225321
19567 1 0.239675 0.89661 0.225321
19013 1 0.281904 0.407119 0.200363
19014 1 0.310044 0.74568 0.200363
19019 1 0.281904 0.907119 0.200363
19020 1 0.310044 0.24568 0.200363
19562 1 0.26781 0.734442 0.225308
19564 1 0.295945 0.0728135 0.225303
19568 1 0.26781 0.234442 0.225308
19570 1 0.295945 0.572814 0.225303
19023 1 0.338186 0.0847325 0.20037
19025 1 0.366329 0.424299 0.200384
19029 1 0.338186 0.584733 0.20037
19031 1 0.366329 0.924299 0.200384
19573 1 0.324085 0.41178 0.225308
19574 1 0.352229 0.751364 0.225322
19576 1 0.380376 0.0915858 0.225343
19579 1 0.324085 0.91178 0.225308
19580 1 0.352229 0.251364 0.225322
19582 1 0.380376 0.591586 0.225343
19026 1 0.394473 0.764377 0.200402
19032 1 0.394473 0.264377 0.200402
19035 1 0.422617 0.104903 0.200421
19041 1 0.422617 0.604903 0.200421
19585 1 0.408525 0.43242 0.225368
19586 1 0.436674 0.773787 0.225393
19591 1 0.408525 0.93242 0.225368
19592 1 0.436674 0.273787 0.225393
19037 1 0.450758 0.445779 0.200437
19038 1 0.478897 0.78688 0.200447
19043 1 0.450758 0.945779 0.200437
19044 1 0.478897 0.28688 0.200447
19588 1 0.464822 0.115548 0.225411
19594 1 0.464822 0.615549 0.225411
19597 1 0.492969 0.457519 0.225418
19603 1 0.492969 0.957519 0.225418
19530 3 0.0566827 0.706393 0.2502
19536 3 0.0566827 0.206393 0.2502
20080 3 0.0426091 0.0353023 0.27518
20082 3 0.0566827 0.699339 0.30016
20086 3 0.0426091 0.535302 0.27518
20088 3 0.0566827 0.199339 0.30016
19539 3 0.0848298 0.0419586 0.2502
19541 1 0.113201 0.378194 0.25045
19545 3 0.0848298 0.541958 0.2502
19547 1 0.113201 0.878194 0.25045
20089 3 0.0707563 0.370633 0.27518
20090 1 0.0993019 0.70605 0.275424
20091 1 0.0851435 0.033855 0.300248
20092 1 0.127302 0.0418707 0.27536
20093 1 0.113247 0.369856 0.300307
20095 3 0.0707563 0.870634 0.27518
20096 1 0.099302 0.20605 0.275424
20097 1 0.0851435 0.533855 0.300248
20098 1 0.127302 0.541871 0.27536
20099 1 0.113247 0.869856 0.300307
19542 1 0.141281 0.713648 0.250382
19548 1 0.141281 0.213648 0.250382
19551 1 0.169349 0.0498453 0.250293
19557 1 0.169349 0.549845 0.250293
20094 1 0.141324 0.705703 0.300285
20100 1 0.141324 0.205703 0.300285
20101 1 0.155358 0.377811 0.275293
20102 1 0.183427 0.714146 0.275243
20103 1 0.169389 0.0417311 0.300234
20107 1 0.155358 0.877811 0.275293
20108 1 0.183427 0.214146 0.275243
20109 1 0.169389 0.541731 0.300234
19553 1 0.197465 0.386658 0.250275
19554 1 0.225589 0.72387 0.250265
19559 1 0.197465 0.886658 0.250275
19560 1 0.225589 0.22387 0.250265
19563 1 0.253717 0.0614851 0.250254
19569 1 0.253717 0.561485 0.250254
20104 1 0.211523 0.050979 0.27522
20105 1 0.19747 0.378122 0.300195
20106 1 0.225563 0.715001 0.30017
20110 1 0.211523 0.550979 0.27522
20111 1 0.19747 0.878122 0.300195
20112 1 0.225563 0.215001 0.30017
20113 1 0.239634 0.388291 0.275205
20115 1 0.253667 0.0524067 0.300149
20119 1 0.239634 0.888291 0.275205
20121 1 0.253667 0.552407 0.300149
19565 1 0.281847 0.399604 0.250246
19566 1 0.309981 0.738353 0.250245
19571 1 0.281847 0.899604 0.250246
19572 1 0.309981 0.238353 0.250245
20114 1 0.267752 0.726103 0.275192
20116 1 0.295878 0.064533 0.275185
20117 1 0.281781 0.390414 0.300134
20118 1 0.309903 0.72916 0.300125
20120 1 0.267752 0.226103 0.275192
20122 1 0.295878 0.564533 0.275185
20123 1 0.281781 0.890414 0.300134
20124 1 0.309903 0.22916 0.300125
19575 1 0.338122 0.0778134 0.250254
19577 1 0.36627 0.418038 0.250274
19581 1 0.338122 0.577813 0.250254
19583 1 0.36627 0.918038 0.250274
20135 1 0.366185 0.909567 0.300144
20125 1 0.324012 0.403709 0.275187
20126 1 0.352156 0.743752 0.2752
20127 1 0.338038 0.0688168 0.300127
20128 1 0.380309 0.0847653 0.275226
20129 1 0.366185 0.409567 0.300144
20131 1 0.324012 0.903709 0.275187
20132 1 0.352156 0.243752 0.2752
20133 1 0.338038 0.568817 0.300127
20134 1 0.380309 0.584765 0.275226
20145 1 0.422519 0.594902 0.300218
20144 1 0.436637 0.269778 0.2753
19578 1 0.394423 0.759058 0.250302
20143 1 0.408471 0.926794 0.275261
19584 1 0.394423 0.259058 0.250302
20139 1 0.422519 0.0949017 0.300218
19587 1 0.422579 0.100838 0.250335
20138 1 0.436637 0.769777 0.2753
20137 1 0.408471 0.426794 0.275261
20136 1 0.394346 0.251573 0.300175
19593 1 0.422579 0.600838 0.250335
20130 1 0.394346 0.751573 0.300175
20148 1 0.478883 0.284852 0.300288
20147 1 0.450699 0.939442 0.300261
20146 1 0.464805 0.613505 0.275329
20142 1 0.478883 0.784852 0.300288
20141 1 0.450699 0.439442 0.300261
20140 1 0.464805 0.113505 0.275329
19589 1 0.450736 0.44325 0.250363
19590 1 0.478893 0.786088 0.25038
19595 1 0.450736 0.94325 0.250363
19596 1 0.478893 0.286087 0.25038
20149 1 0.492973 0.457645 0.27534
20155 1 0.492973 0.957646 0.27534
21190 3 0.0426091 0.520393 0.3751
21188 3 0.014462 0.185925 0.3751
21184 3 0.0426091 0.0203936 0.3751
21182 3 0.014462 0.685925 0.3751
20640 3 0.0566827 0.191697 0.35012
20639 3 0.0285356 0.856958 0.35012
20638 3 0.0426091 0.528104 0.32514
20634 3 0.0566827 0.691697 0.35012
20633 3 0.0285356 0.356957 0.35012
20632 3 0.0426091 0.0281043 0.32514
21202 1 0.127175 0.524385 0.375116
21200 1 0.0990811 0.189281 0.375087
21199 1 0.0710931 0.854677 0.37513
21196 1 0.127175 0.0243851 0.375116
21194 1 0.0990811 0.689281 0.375087
21193 1 0.0710931 0.354677 0.37513
20651 1 0.113106 0.861519 0.350149
20650 1 0.127226 0.533585 0.325236
20649 1 0.0849871 0.526437 0.350105
20648 1 0.0991273 0.197996 0.325201
20647 1 0.0708368 0.863432 0.325067
20645 1 0.113106 0.361519 0.350149
20644 1 0.127226 0.0335852 0.325236
20643 1 0.0849871 0.0264367 0.350105
20642 1 0.0991273 0.697996 0.325201
20641 1 0.0708368 0.363432 0.325067
21212 1 0.183373 0.195307 0.375107
21211 1 0.155275 0.859753 0.375121
21206 1 0.183373 0.695307 0.375107
21205 1 0.155275 0.359753 0.375121
20661 1 0.169339 0.532575 0.350157
20660 1 0.18341 0.205348 0.32518
20659 1 0.155321 0.869337 0.325215
20655 1 0.169339 0.0325747 0.350157
20654 1 0.18341 0.705348 0.32518
20653 1 0.155321 0.369337 0.325215
20652 1 0.141233 0.196915 0.350171
20646 1 0.141233 0.696915 0.350171
21223 1 0.239554 0.867404 0.375053
21217 1 0.239554 0.367404 0.375053
21214 1 0.211465 0.531147 0.375082
21208 1 0.211465 0.0311469 0.375082
20673 1 0.253616 0.541751 0.350069
20671 1 0.239592 0.878635 0.325119
20667 1 0.253616 0.041751 0.350069
20665 1 0.239592 0.378635 0.325119
20664 1 0.225524 0.20487 0.350099
20663 1 0.197434 0.86852 0.350129
20662 1 0.211498 0.54174 0.325147
20658 1 0.225524 0.70487 0.350099
20657 1 0.197434 0.36852 0.350129
20656 1 0.211498 0.0417402 0.325147
21226 1 0.295734 0.541742 0.37499
21224 1 0.267643 0.204218 0.375021
21220 1 0.295734 0.0417422 0.37499
21218 1 0.267643 0.704218 0.375021
20676 1 0.309818 0.217633 0.350018
20675 1 0.281713 0.879281 0.350041
20674 1 0.295801 0.554303 0.325076
20672 1 0.267692 0.216116 0.325095
20670 1 0.309818 0.717633 0.350018
20669 1 0.281713 0.379281 0.350041
20668 1 0.295801 0.0543026 0.325076
20666 1 0.267692 0.716116 0.325095
21238 1 0.380073 0.561428 0.374928
21236 1 0.351942 0.219942 0.374938
21235 1 0.323832 0.880206 0.374961
21232 1 0.380073 0.0614277 0.374928
21230 1 0.351942 0.719942 0.374938
21229 1 0.323832 0.380206 0.374961
20687 1 0.366069 0.897877 0.349999
20686 1 0.38021 0.5752 0.325083
20685 1 0.337935 0.557056 0.350002
20684 1 0.352057 0.233591 0.325065
20683 1 0.323922 0.893384 0.325064
20681 1 0.366069 0.397877 0.349999
20680 1 0.38021 0.0751996 0.325083
20679 1 0.337935 0.0570564 0.350002
20678 1 0.352057 0.73359 0.325065
20677 1 0.323922 0.393384 0.325064
21248 1 0.436447 0.252739 0.374984
21247 1 0.408237 0.905376 0.374941
21242 1 0.436447 0.752738 0.374984
21241 1 0.408237 0.405376 0.374941
20697 1 0.422416 0.58549 0.350058
20696 1 0.436571 0.26353 0.32517
20695 1 0.408382 0.918473 0.32512
20691 1 0.422416 0.0854903 0.350058
20690 1 0.436571 0.76353 0.32517
20689 1 0.408382 0.418473 0.32512
20688 1 0.394228 0.240535 0.350017
20682 1 0.394228 0.740535 0.350017
21250 1 0.464702 0.604014 0.375046
21244 1 0.464702 0.104013 0.375046
20700 1 0.478859 0.282646 0.350155
20699 1 0.45063 0.933012 0.350115
20698 1 0.464771 0.610184 0.325215
20694 1 0.478859 0.782646 0.350155
20693 1 0.45063 0.433012 0.350115
20692 1 0.464771 0.110183 0.325215
21259 1 0.492977 0.95795 0.375073
21253 1 0.492977 0.45795 0.375073
20707 1 0.492976 0.957792 0.325232
20701 1 0.492976 0.457792 0.325232
21742 1 0.0426603 0.513212 0.424986
21740 3 0.014462 0.178238 0.42506
21736 1 0.0426603 0.0132122 0.424986
21734 3 0.014462 0.678237 0.42506
21192 1 0.057004 0.182865 0.400117
21191 3 0.0285356 0.849233 0.40008
21186 1 0.057004 0.682865 0.400117
21185 3 0.0285356 0.349233 0.40008
21754 1 0.127187 0.514562 0.425061
21752 1 0.0990958 0.18021 0.425065
21751 1 0.0710008 0.846165 0.42506
21748 1 0.127187 0.0145617 0.425061
21746 1 0.0990958 0.68021 0.425065
21745 1 0.0710008 0.346165 0.42506
21203 1 0.113145 0.852091 0.400083
21201 1 0.0850781 0.517493 0.400092
21197 1 0.113145 0.352091 0.400083
21195 1 0.0850781 0.017493 0.400092
21764 1 0.183379 0.18403 0.425047
21763 1 0.155284 0.849201 0.425057
21758 1 0.183379 0.68403 0.425047
21757 1 0.155284 0.349201 0.425057
21213 1 0.169324 0.522154 0.400082
21207 1 0.169324 0.0221536 0.400082
21204 1 0.141227 0.187007 0.400086
21198 1 0.141227 0.687007 0.400086
21775 1 0.239559 0.854392 0.425003
21769 1 0.239559 0.354391 0.425003
21766 1 0.211471 0.519063 0.425028
21760 1 0.211471 0.0190626 0.425028
21225 1 0.253592 0.529217 0.40001
21219 1 0.253592 0.0292175 0.40001
21216 1 0.225506 0.193146 0.40004
21215 1 0.197417 0.857503 0.400065
21210 1 0.225506 0.693146 0.40004
21209 1 0.197417 0.357503 0.400065
21778 1 0.295721 0.526423 0.424939
21776 1 0.267642 0.190129 0.424973
21772 1 0.295721 0.0264228 0.424939
21770 1 0.267642 0.690129 0.424973
21228 1 0.30976 0.203263 0.399942
21227 1 0.281676 0.865861 0.399977
21222 1 0.30976 0.703264 0.399942
21221 1 0.281676 0.365861 0.399977
21790 1 0.379949 0.541689 0.424817
21788 1 0.35187 0.201735 0.424861
21787 1 0.323796 0.863503 0.424902
21784 1 0.379949 0.0416892 0.424817
21782 1 0.35187 0.701735 0.424861
21781 1 0.323796 0.363503 0.424902
21239 1 0.365945 0.881677 0.399874
21237 1 0.337847 0.541722 0.399907
21233 1 0.365945 0.381677 0.399874
21231 1 0.337847 0.0417216 0.399907
21800 1 0.436194 0.23209 0.424724
21799 1 0.408046 0.884357 0.424772
21794 1 0.436194 0.73209 0.424724
21793 1 0.408046 0.384356 0.424772
21249 1 0.422231 0.569418 0.399847
21243 1 0.422231 0.0694184 0.399847
21240 1 0.394066 0.223827 0.399852
21234 1 0.394066 0.723827 0.399852
21802 1 0.464505 0.589687 0.424762
21796 1 0.464505 0.0896857 0.424762
21252 1 0.478803 0.277939 0.399957
21251 1 0.450475 0.920519 0.399889
21246 1 0.478803 0.77794 0.399957
21245 1 0.450475 0.420519 0.399889
21811 1 0.492976 0.9581 0.42485
21805 1 0.492976 0.458099 0.42485
21744 1 0.056996 0.174696 0.450026
21743 3 0.0285356 0.841194 0.45004
21741 3 0.00038843 0.50742 0.45004
21738 1 0.056996 0.674696 0.450026
21737 3 0.0285356 0.341193 0.45004
21735 3 0.00038843 0.0074206 0.45004
22286 3 0.014462 0.670326 0.47502
22287 3 0.00038843 0.999677 0.5
22288 1 0.0429037 0.00325696 0.475072
22289 3 0.0285356 0.33299 0.5
22290 1 0.0570742 0.665582 0.499996
22292 3 0.014462 0.170327 0.47502
22293 3 0.00038843 0.499676 0.5
22294 1 0.0429037 0.503257 0.475072
22295 3 0.0285356 0.832991 0.5
22296 1 0.0570742 0.165582 0.499996
21755 1 0.11315 0.842382 0.450036
21753 1 0.0850462 0.508425 0.450026
21749 1 0.11315 0.342382 0.450036
21747 1 0.0850462 0.00842503 0.450026
22297 1 0.0710252 0.336848 0.475004
22298 1 0.0991244 0.670428 0.47501
22299 1 0.0851073 0.998739 0.499995
22300 1 0.127218 0.00415756 0.475012
22301 1 0.113192 0.332111 0.499993
22303 1 0.0710252 0.836848 0.475004
22304 1 0.0991244 0.170428 0.47501
22305 1 0.0851073 0.498739 0.499995
22306 1 0.127218 0.504158 0.475012
22307 1 0.113192 0.832111 0.499993
21765 1 0.169348 0.510833 0.450027
21759 1 0.169348 0.0108333 0.450027
21756 1 0.141249 0.176537 0.450034
21750 1 0.141249 0.676537 0.450034
22302 1 0.141294 0.665544 0.499988
22308 1 0.141294 0.165544 0.499988
22309 1 0.155322 0.337986 0.475007
22310 1 0.183424 0.671854 0.474998
22311 1 0.169401 0.998921 0.49998
22315 1 0.155322 0.837986 0.475007
22316 1 0.183424 0.171854 0.474998
22317 1 0.169401 0.498921 0.49998
21777 1 0.253628 0.514714 0.449971
21771 1 0.253628 0.0147141 0.449971
21768 1 0.225539 0.179867 0.449995
21767 1 0.197445 0.845265 0.450014
21762 1 0.225539 0.679867 0.449995
21761 1 0.197445 0.345265 0.450014
22312 1 0.211524 0.00577991 0.474984
22313 1 0.197509 0.332243 0.499969
22314 1 0.225616 0.665521 0.499955
22318 1 0.211524 0.50578 0.474984
22319 1 0.197509 0.832243 0.499969
22320 1 0.225616 0.165521 0.499955
22321 1 0.239622 0.339796 0.474966
22323 1 0.253721 0.998747 0.499939
22327 1 0.239622 0.839796 0.474966
22329 1 0.253721 0.498747 0.499939
21780 1 0.309786 0.185573 0.449911
21779 1 0.281711 0.849898 0.449943
21774 1 0.309786 0.685573 0.449911
21773 1 0.281711 0.349898 0.449943
22322 1 0.267715 0.673936 0.474944
22324 1 0.295802 0.00826009 0.47492
22325 1 0.281823 0.331892 0.499922
22326 1 0.30992 0.664947 0.499905
22328 1 0.267715 0.173936 0.474944
22330 1 0.295802 0.50826 0.47492
22331 1 0.281823 0.831892 0.499922
22332 1 0.30992 0.164947 0.499905
21791 1 0.365912 0.859551 0.44983
21789 1 0.337854 0.521985 0.449874
21785 1 0.365912 0.359551 0.44983
21783 1 0.337854 0.0219852 0.449874
22333 1 0.323881 0.342883 0.474893
22334 1 0.351947 0.678003 0.474864
22335 1 0.33801 0.997888 0.49989
22336 1 0.37999 0.0139248 0.474829
22337 1 0.366089 0.330602 0.499879
22339 1 0.323881 0.842883 0.474893
22340 1 0.351947 0.178003 0.474864
22341 1 0.33801 0.497888 0.49989
22342 1 0.37999 0.513926 0.474829
22343 1 0.366089 0.830601 0.499879
21801 1 0.422005 0.541658 0.4497
21795 1 0.422005 0.0416583 0.4497
21792 1 0.39396 0.198989 0.449776
21786 1 0.39396 0.69899 0.449776
22338 1 0.394148 0.662789 0.499874
22344 1 0.394148 0.162789 0.499875
22345 1 0.407994 0.351223 0.474781
22346 1 0.435957 0.691179 0.474713
22347 1 0.422183 0.993594 0.499889
22351 1 0.407994 0.851223 0.474781
22352 1 0.435957 0.19118 0.474713
22353 1 0.422183 0.493593 0.499889
21804 1 0.478604 0.262609 0.449651
21803 1 0.450118 0.892108 0.449576
21798 1 0.478604 0.762609 0.449651
21797 1 0.450118 0.392109 0.449576
22348 1 0.464008 0.0416343 0.474551
22349 1 0.450264 0.320651 0.499956
22363 1 0.492974 0.958234 0.474602
22354 1 0.464008 0.541634 0.474551
22355 1 0.450264 0.820652 0.499956
22357 1 0.492974 0.458234 0.474602
22838 3 0.014462 0.662343 0.52498
22839 3 0.00038843 0.991939 0.54996
22840 1 0.04291 0.994688 0.524918
22841 3 0.0285356 0.324794 0.54996
22842 1 0.0570144 0.657045 0.549963
22844 3 0.014462 0.162344 0.52498
22845 3 0.00038843 0.491939 0.54996
22846 1 0.04291 0.494688 0.524918
22847 3 0.0285356 0.824795 0.54996
22848 1 0.0570144 0.157045 0.549963
22849 1 0.0710415 0.327681 0.524988
22850 1 0.0991516 0.660595 0.524978
22851 1 0.085086 0.989519 0.549961
22852 1 0.127257 0.993573 0.524968
22853 1 0.113212 0.322111 0.549945
22855 1 0.0710415 0.827681 0.524988
22856 1 0.0991516 0.160595 0.524978
22857 1 0.085086 0.489519 0.549961
22858 1 0.127257 0.493573 0.524968
22859 1 0.113212 0.822111 0.549945
22854 1 0.141333 0.654657 0.549938
22860 1 0.141333 0.154657 0.549938
22861 1 0.155372 0.326518 0.52496
22862 1 0.183486 0.659325 0.524951
22863 1 0.169454 0.987038 0.54993
22867 1 0.155372 0.826518 0.52496
22868 1 0.183486 0.159325 0.524951
22869 1 0.169454 0.487038 0.54993
22864 1 0.211602 0.991985 0.52494
22865 1 0.197575 0.319203 0.549921
22866 1 0.225698 0.651101 0.54991
22870 1 0.211602 0.491985 0.52494
22871 1 0.197575 0.819203 0.549921
22872 1 0.225698 0.151101 0.54991
22873 1 0.239717 0.324461 0.524927
22875 1 0.253823 0.982631 0.549901
22879 1 0.239717 0.824461 0.524927
22881 1 0.253823 0.482631 0.549901
22874 1 0.267832 0.656674 0.524915
22876 1 0.295945 0.988518 0.524904
22877 1 0.281947 0.313639 0.549894
22878 1 0.310071 0.643929 0.549894
22880 1 0.267832 0.156673 0.524915
22882 1 0.295945 0.488518 0.524904
22883 1 0.281947 0.813639 0.549894
22884 1 0.310071 0.143929 0.549894
22885 1 0.324057 0.319844 0.524898
22886 1 0.352165 0.65032 0.524902
22887 1 0.338194 0.973143 0.549904
22888 1 0.380268 0.979286 0.524924
22889 1 0.366313 0.300645 0.549936
22891 1 0.324057 0.819844 0.524898
22892 1 0.352165 0.150321 0.524902
22893 1 0.338194 0.473143 0.549904
22894 1 0.380268 0.479286 0.524924
22895 1 0.366313 0.800646 0.549936
22890 1 0.394428 0.62531 0.550004
22896 1 0.394428 0.125309 0.550004
22897 1 0.40837 0.305328 0.524982
22898 1 0.436492 0.625145 0.525112
22899 1 0.422542 0.945119 0.55014
22903 1 0.40837 0.805329 0.524982
22904 1 0.436492 0.125144 0.525112
22905 1 0.422542 0.445119 0.55014
22900 1 0.464633 0.92952 0.525466
22901 1 0.45065 0.256717 0.550426
22902 1 0.478809 0.559018 0.550786
22906 1 0.464633 0.429522 0.525466
22907 1 0.45065 0.756717 0.550426
22908 1 0.478809 0.0590164 0.550786
22909 1 0.49297 0.208463 0.525967
22915 1 0.49297 0.70846 0.525967
22356 1 0.478535 0.125015 0.500232
22350 1 0.478535 0.625015 0.500232
23390 3 0.014462 0.654446 0.57494
23392 1 0.0426788 0.987512 0.574999
23393 3 0.0285356 0.316776 0.59992
23394 1 0.0570289 0.648068 0.59987
23396 3 0.014462 0.154446 0.57494
23398 1 0.0426788 0.487512 0.574999
23399 3 0.0285356 0.816776 0.59992
23400 1 0.0570289 0.148068 0.59987
23942 3 0.014462 0.646783 0.6249
23944 3 0.0426091 0.978947 0.6249
23948 3 0.014462 0.146783 0.6249
23950 3 0.0426091 0.478947 0.6249
23401 1 0.0710402 0.318956 0.574925
23402 1 0.0991667 0.651121 0.574913
23403 1 0.085139 0.9804 0.599882
23404 1 0.127287 0.983295 0.574913
23405 1 0.113245 0.312412 0.599886
23407 1 0.0710402 0.818956 0.574925
23408 1 0.0991667 0.151121 0.574913
23409 1 0.085139 0.4804 0.599882
23410 1 0.127287 0.483295 0.574913
23411 1 0.113245 0.812412 0.599886
23953 1 0.071123 0.310408 0.624839
23954 1 0.0991651 0.642079 0.624867
23956 1 0.127287 0.973669 0.624863
23959 1 0.071123 0.810408 0.624839
23960 1 0.0991651 0.142079 0.624867
23962 1 0.127287 0.473669 0.624863
23406 1 0.141357 0.644216 0.599886
23412 1 0.141357 0.144216 0.599886
23413 1 0.155411 0.31535 0.574908
23414 1 0.183536 0.647147 0.5749
23415 1 0.169484 0.975761 0.599879
23419 1 0.155411 0.81535 0.574908
23420 1 0.183536 0.147147 0.5749
23421 1 0.169484 0.475761 0.599879
23965 1 0.155414 0.305 0.624857
23966 1 0.183549 0.635978 0.624847
23971 1 0.155414 0.805 0.624857
23972 1 0.183549 0.135978 0.624847
23416 1 0.211664 0.978623 0.57489
23417 1 0.197614 0.306946 0.599869
23418 1 0.225748 0.637695 0.59986
23422 1 0.211664 0.478623 0.57489
23423 1 0.197614 0.806946 0.599869
23424 1 0.225748 0.137695 0.59986
23425 1 0.239794 0.309682 0.574882
23427 1 0.253882 0.967869 0.599857
23431 1 0.239794 0.809682 0.574882
23433 1 0.253882 0.467869 0.599857
23968 1 0.211686 0.966528 0.624838
23974 1 0.211686 0.466528 0.624838
23977 1 0.239823 0.296539 0.624833
23983 1 0.239823 0.796539 0.624833
23426 1 0.267925 0.640164 0.574878
23428 1 0.296056 0.969859 0.57488
23429 1 0.282017 0.297277 0.59986
23430 1 0.310148 0.62567 0.599875
23432 1 0.267925 0.140164 0.574878
23434 1 0.296056 0.469859 0.57488
23435 1 0.282017 0.797277 0.59986
23436 1 0.310148 0.12567 0.599875
23978 1 0.26796 0.625845 0.624836
23980 1 0.296093 0.954246 0.624851
23984 1 0.26796 0.125845 0.624836
23986 1 0.296093 0.454246 0.624851
23437 1 0.324184 0.298468 0.574894
23438 1 0.35231 0.625492 0.574928
23439 1 0.338275 0.952696 0.599909
23440 1 0.380428 0.95016 0.574995
23441 1 0.366395 0.277852 0.59997
23443 1 0.324184 0.798468 0.574894
23444 1 0.35231 0.125492 0.574928
23445 1 0.338275 0.452696 0.599909
23446 1 0.380428 0.450161 0.574995
23447 1 0.366395 0.777852 0.59997
23989 1 0.324221 0.281489 0.624882
23990 1 0.352342 0.607249 0.624936
23992 1 0.380455 0.931171 0.625021
23995 1 0.324221 0.781488 0.624882
23996 1 0.352342 0.107249 0.624936
23998 1 0.380455 0.43117 0.625021
23442 1 0.394506 0.600504 0.600071
23448 1 0.394506 0.100504 0.600071
23449 1 0.40854 0.271347 0.575114
23450 1 0.436645 0.587687 0.575318
23451 1 0.422612 0.920064 0.600223
23455 1 0.40854 0.771346 0.575114
23456 1 0.436645 0.0876883 0.575318
23457 1 0.422612 0.420064 0.600223
24001 1 0.408563 0.252969 0.625141
24002 1 0.436678 0.572702 0.625282
24007 1 0.408563 0.75297 0.625141
24008 1 0.436678 0.0727007 0.625282
23452 1 0.46477 0.899117 0.575573
23453 1 0.450729 0.236591 0.600407
23454 1 0.478881 0.551383 0.600532
23458 1 0.46477 0.399115 0.575573
23459 1 0.450729 0.736591 0.600407
23460 1 0.478881 0.0513845 0.600532
24004 1 0.464812 0.890999 0.625403
24010 1 0.464812 0.391 0.625403
23461 1 0.492967 0.208555 0.575677
23467 1 0.492967 0.708558 0.575677
24013 1 0.492966 0.208705 0.625448
24019 1 0.492966 0.708703 0.625448
23945 3 0.0285356 0.309084 0.64988
23946 3 0.0566827 0.640979 0.64988
23951 3 0.0285356 0.809084 0.64988
23952 3 0.0566827 0.14098 0.64988
24496 3 0.0426091 0.971276 0.67486
24502 3 0.0426091 0.471276 0.67486
23955 1 0.0850561 0.972494 0.64981
23957 1 0.11318 0.303743 0.649835
23961 1 0.0850561 0.472494 0.64981
23963 1 0.11318 0.803743 0.649835
24505 1 0.0708003 0.302801 0.674847
24506 1 0.0991183 0.634075 0.674771
24508 1 0.127234 0.965063 0.674797
24511 1 0.0708003 0.802801 0.674847
24512 1 0.0991183 0.134075 0.674771
24514 1 0.127234 0.465063 0.674797
23958 1 0.141329 0.634818 0.64983
23964 1 0.141329 0.134818 0.64983
23967 1 0.16947 0.965626 0.649823
23973 1 0.16947 0.465626 0.649823
24517 1 0.155384 0.295768 0.674793
24518 1 0.183528 0.626136 0.674787
24523 1 0.155384 0.795768 0.674793
24524 1 0.183528 0.126136 0.674787
23969 1 0.197612 0.296053 0.649813
23970 1 0.225753 0.625988 0.649807
23975 1 0.197612 0.796053 0.649813
23976 1 0.225753 0.125988 0.649807
23979 1 0.253891 0.9553 0.649809
23985 1 0.253891 0.4553 0.649809
24520 1 0.211673 0.956063 0.67478
24526 1 0.211673 0.456063 0.67478
24529 1 0.239814 0.28544 0.674779
24535 1 0.239814 0.78544 0.674779
23981 1 0.282026 0.283822 0.649822
23982 1 0.310155 0.611368 0.64985
23987 1 0.282026 0.783822 0.649822
23988 1 0.310155 0.111369 0.64985
24530 1 0.267951 0.614138 0.67479
24532 1 0.296083 0.94201 0.674814
24536 1 0.267951 0.114138 0.67479
24538 1 0.296083 0.44201 0.674814
23991 1 0.338278 0.937728 0.649898
23993 1 0.366394 0.262682 0.649969
23997 1 0.338278 0.437728 0.649898
23999 1 0.366394 0.762682 0.649969
24541 1 0.324208 0.268913 0.674855
24542 1 0.352327 0.594715 0.674916
24544 1 0.380442 0.919336 0.674996
24547 1 0.324208 0.768913 0.674855
24548 1 0.352327 0.0947154 0.674916
24550 1 0.380442 0.419337 0.674996
24560 1 0.436684 0.0653383 0.675181
24559 1 0.40856 0.742811 0.675089
23994 1 0.394506 0.586096 0.650066
24000 1 0.394506 0.0860959 0.650066
24003 1 0.422621 0.908007 0.65018
24009 1 0.422621 0.408006 0.65018
24553 1 0.40856 0.242811 0.675089
24554 1 0.436684 0.565338 0.675181
24562 1 0.464821 0.387242 0.67525
24556 1 0.464821 0.887243 0.67525
24005 1 0.450748 0.228745 0.650287
24006 1 0.47889 0.548833 0.650351
24011 1 0.450748 0.728746 0.650286
24012 1 0.47889 0.0488323 0.650351
24565 1 0.492966 0.208851 0.675274