ITEM: TIMESTEP
40
ITEM: NUMBER OF ATOMS
2360
ITEM: BOX BOUNDS ss pp ss
-4.1409160050000004e+01 4.1409147969000003e+01
-4.1208122699999999e-01 4.5329187729999996e+00
-4.1585736442000005e+01 4.1249249110000001e+01
ITEM: ATOMS id type xs ys zs
17356 3 0.295933 0.0913186 0.0491324
17362 3 0.295933 0.591318 0.0491324
16815 3 0.338154 0.0989885 0.0247612
16817 3 0.366301 0.436602 0.0247612
16821 3 0.338154 0.598988 0.0247612
16823 3 0.366301 0.936603 0.0247612
17365 3 0.32408 0.428856 0.0491324
17366 3 0.352228 0.766574 0.0491324
17368 3 0.380375 0.104455 0.0491324
17371 3 0.32408 0.928856 0.0491324
17372 3 0.352228 0.266574 0.0491324
17374 3 0.380375 0.604454 0.0491324
16818 3 0.394448 0.77435 0.0247612
16824 3 0.394448 0.27435 0.0247612
16826 3 0.436669 0.781675 0.00038994
16827 3 0.422595 0.112209 0.0247612
16832 3 0.436669 0.281676 0.00038994
16833 3 0.422595 0.612208 0.0247612
17377 1 0.408643 0.44257 0.0492009
17378 1 0.436799 0.781831 0.0494697
17383 1 0.408643 0.94257 0.0492009
17384 1 0.436799 0.281831 0.0494697
16828 3 0.464816 0.119429 0.00038994
16829 3 0.450743 0.450151 0.0247612
16830 3 0.47889 0.78815 0.0247612
16834 3 0.464816 0.619429 0.00038994
16835 3 0.450743 0.950151 0.0247612
16836 3 0.47889 0.288151 0.0247612
17380 1 0.464922 0.119429 0.0494939
17386 1 0.464922 0.619429 0.0494939
16837 3 0.492963 0.457217 0.00038994
16843 3 0.492963 0.957218 0.00038994
17389 1 0.492961 0.457208 0.0493815
17395 1 0.492961 0.957208 0.0493815
17895 3 0.169271 0.0679941 0.122246
17901 3 0.169271 0.567994 0.122246
17355 3 0.253713 0.0834974 0.0735036
17361 3 0.253713 0.583497 0.0735036
17896 3 0.211492 0.0756731 0.0978748
17897 3 0.197418 0.404806 0.122246
17898 3 0.225565 0.74188 0.122246
17902 3 0.211492 0.575673 0.0978748
17903 3 0.197418 0.904807 0.122246
17904 3 0.225565 0.24188 0.122246
17905 3 0.239639 0.412799 0.0978748
17907 1 0.25385 0.0801699 0.122478
17911 3 0.239639 0.912799 0.0978748
17913 1 0.25385 0.58017 0.122478
17357 3 0.28186 0.42087 0.0735036
17358 3 0.310007 0.758464 0.0735036
17363 3 0.28186 0.920871 0.0735036
17364 3 0.310007 0.258464 0.0735036
17906 3 0.267786 0.750174 0.0978748
17908 1 0.296062 0.0888183 0.098122
17909 1 0.28204 0.417915 0.12257
17910 1 0.310138 0.755785 0.122517
17912 3 0.267786 0.250174 0.0978748
17914 1 0.296062 0.588818 0.098122
17915 1 0.28204 0.917915 0.12257
17916 1 0.310138 0.255785 0.122517
17367 1 0.338234 0.0970884 0.0738115
17369 1 0.366431 0.434874 0.0738417
17373 1 0.338234 0.597088 0.0738115
17375 1 0.366431 0.934874 0.0738417
17917 1 0.324241 0.426674 0.0982367
17918 1 0.352352 0.764686 0.0981529
17919 1 0.338283 0.0940776 0.122523
17920 1 0.380494 0.103056 0.0980878
17921 1 0.366416 0.43246 0.122488
17923 1 0.324241 0.926674 0.0982367
17924 1 0.352352 0.264686 0.0981529
17925 1 0.338283 0.594078 0.122523
17926 1 0.380494 0.603056 0.0980878
17927 1 0.366416 0.93246 0.122488
17370 1 0.394553 0.772938 0.0736742
17376 1 0.394553 0.272938 0.0736742
17379 1 0.4227 0.111652 0.0737777
17385 1 0.4227 0.611652 0.0737777
17922 1 0.394533 0.771057 0.122468
17928 1 0.394533 0.271057 0.122468
17929 1 0.408596 0.441387 0.0980796
17930 1 0.436726 0.780171 0.0981518
17931 1 0.422646 0.109824 0.122488
17935 1 0.408596 0.941387 0.0980796
17936 1 0.436726 0.280171 0.0981518
17937 1 0.422646 0.609824 0.122488
17381 1 0.450826 0.450191 0.0738221
17382 1 0.478927 0.788335 0.0737906
17387 1 0.450826 0.950191 0.0738221
17388 1 0.478927 0.288335 0.0737906
17932 1 0.464856 0.118852 0.0981793
17933 1 0.450775 0.448857 0.122525
17934 1 0.478902 0.787856 0.122541
17938 1 0.464856 0.618852 0.0981793
17939 1 0.450775 0.948857 0.122525
17940 1 0.478902 0.287856 0.122541
17941 1 0.492961 0.457287 0.0981776
17947 1 0.492961 0.957287 0.0981776
18438 3 0.141124 0.725966 0.170988
18444 3 0.141124 0.225967 0.170988
18445 3 0.155198 0.397047 0.146617
18446 3 0.183345 0.733759 0.146617
18447 3 0.169271 0.0625463 0.170988
18451 3 0.155198 0.897048 0.146617
18452 3 0.183345 0.23376 0.146617
18453 3 0.169271 0.562546 0.170988
18448 1 0.211701 0.0713677 0.146831
18449 1 0.19762 0.39983 0.171255
18450 1 0.225704 0.737268 0.171208
18454 1 0.211701 0.571368 0.146831
18455 1 0.19762 0.89983 0.171255
18456 1 0.225704 0.237268 0.171208
18457 1 0.239849 0.408869 0.146925
18459 1 0.253842 0.075037 0.171215
18463 1 0.239849 0.908869 0.146925
18465 1 0.253842 0.575037 0.171215
18458 1 0.267932 0.746547 0.146859
18460 1 0.296065 0.0846256 0.14687
18461 1 0.281969 0.412916 0.171204
18462 1 0.310104 0.751226 0.171202
18464 1 0.267932 0.246547 0.146859
18466 1 0.296065 0.584626 0.14687
18467 1 0.281969 0.912916 0.171204
18468 1 0.310104 0.251226 0.171202
18469 1 0.324196 0.42282 0.146863
18470 1 0.352332 0.76142 0.146853
18471 1 0.33824 0.0898319 0.1712
18472 1 0.380459 0.10019 0.14684
18473 1 0.366376 0.428796 0.171202
18475 1 0.324196 0.92282 0.146863
18476 1 0.352332 0.26142 0.146853
18477 1 0.33824 0.589832 0.1712
18478 1 0.380459 0.60019 0.14684
18479 1 0.366376 0.928796 0.171202
18474 1 0.394506 0.768058 0.17121
18480 1 0.394506 0.268058 0.17121
18481 1 0.40858 0.43918 0.14685
18482 1 0.436704 0.778437 0.146875
18483 1 0.422634 0.107608 0.171229
18487 1 0.40858 0.93918 0.14685
18488 1 0.436704 0.278437 0.146875
18489 1 0.422634 0.607608 0.171229
18484 1 0.464834 0.117884 0.146898
18485 1 0.450766 0.447425 0.171251
18486 1 0.478901 0.787411 0.171264
18490 1 0.464834 0.617884 0.146898
18491 1 0.450766 0.947425 0.171251
18492 1 0.478901 0.287411 0.171264
18493 1 0.492965 0.457367 0.146906
18499 1 0.492965 0.957367 0.146906
18986 3 0.0989034 0.71862 0.19536
18987 3 0.0848298 0.0475278 0.219731
18988 3 0.127051 0.0547723 0.19536
18989 3 0.112977 0.38349 0.219731
18992 3 0.0989034 0.218621 0.19536
18993 3 0.0848298 0.547527 0.219731
18994 3 0.127051 0.554772 0.19536
18995 3 0.112977 0.883491 0.219731
19537 3 0.0707563 0.376398 0.244102
19538 3 0.0989034 0.712151 0.244102
19540 1 0.127264 0.0485229 0.24436
19543 3 0.0707563 0.876398 0.244102
19544 3 0.0989034 0.212152 0.244102
19546 1 0.127264 0.548523 0.24436
18990 1 0.141311 0.72054 0.219987
18996 1 0.141311 0.22054 0.219987
18997 1 0.155163 0.390885 0.195477
18998 1 0.183396 0.728166 0.195511
18999 1 0.169386 0.0567112 0.219916
19003 1 0.155163 0.890885 0.195477
19004 1 0.183396 0.228166 0.195511
19005 1 0.169386 0.556711 0.219916
19549 1 0.155342 0.385086 0.244287
19550 1 0.183435 0.721604 0.244222
19555 1 0.155342 0.885086 0.244287
19556 1 0.183435 0.221604 0.244222
19000 1 0.211554 0.0655839 0.195532
19001 1 0.197467 0.393491 0.219845
19002 1 0.22561 0.730923 0.219854
19006 1 0.211554 0.565584 0.195532
19007 1 0.197467 0.893491 0.219845
19008 1 0.22561 0.230923 0.219854
19009 1 0.239716 0.403092 0.195537
19011 1 0.253752 0.0686334 0.219857
19015 1 0.239716 0.903092 0.195537
19017 1 0.253752 0.568633 0.219857
19552 1 0.211536 0.0585398 0.244188
19558 1 0.211536 0.55854 0.244188
19561 1 0.239661 0.396014 0.244184
19567 1 0.239661 0.896014 0.244184
19010 1 0.267861 0.74098 0.195536
19012 1 0.296002 0.0791714 0.195533
19013 1 0.281897 0.406741 0.219862
19014 1 0.31004 0.745317 0.219869
19016 1 0.267861 0.24098 0.195536
19018 1 0.296002 0.579171 0.195533
19019 1 0.281897 0.906741 0.219862
19020 1 0.31004 0.245317 0.219869
19562 1 0.267796 0.733953 0.244188
19564 1 0.295936 0.0723949 0.244194
19568 1 0.267796 0.233953 0.244188
19570 1 0.295936 0.572395 0.244194
19021 1 0.324143 0.417802 0.195539
19022 1 0.352284 0.756869 0.195547
19023 1 0.338184 0.0844084 0.21988
19024 1 0.380422 0.0963522 0.19556
19025 1 0.366328 0.424022 0.219897
19027 1 0.324143 0.917802 0.195539
19028 1 0.352284 0.256869 0.195547
19029 1 0.338184 0.584408 0.21988
19030 1 0.380422 0.596352 0.19556
19031 1 0.366328 0.924022 0.219897
19573 1 0.324079 0.411412 0.244205
19574 1 0.352225 0.75105 0.244223
19576 1 0.380374 0.0913284 0.244248
19579 1 0.324079 0.911412 0.244205
19580 1 0.352225 0.25105 0.244223
19582 1 0.380374 0.591328 0.244248
19026 1 0.394471 0.764143 0.219919
19032 1 0.394471 0.264143 0.219919
19033 1 0.408557 0.436216 0.195578
19034 1 0.436694 0.776414 0.195601
19035 1 0.422614 0.104722 0.219944
19039 1 0.408557 0.936216 0.195578
19040 1 0.436694 0.276414 0.195601
19041 1 0.422614 0.604722 0.219944
19585 1 0.408524 0.432222 0.244277
19586 1 0.436674 0.773664 0.244307
19591 1 0.408524 0.932222 0.244277
19592 1 0.436674 0.273664 0.244307
19036 1 0.464832 0.116882 0.195618
19037 1 0.450758 0.445683 0.219967
19038 1 0.478903 0.7869 0.219979
19042 1 0.464832 0.616882 0.195618
19043 1 0.450758 0.945683 0.219967
19044 1 0.478903 0.2869 0.219979
19588 1 0.464826 0.115525 0.244328
19594 1 0.464826 0.615525 0.244328
19045 1 0.492972 0.457494 0.195624
19051 1 0.492972 0.957494 0.195624
19597 1 0.492978 0.457608 0.244333
19603 1 0.492978 0.957608 0.244333
19530 3 0.0566827 0.70526 0.268473
19536 3 0.0566827 0.20526 0.268473
20080 3 0.0426091 0.0341411 0.292845
20086 3 0.0426091 0.534141 0.292845
19539 3 0.0848298 0.0407856 0.268473
19541 1 0.113127 0.37667 0.268591
19545 3 0.0848298 0.540785 0.268473
19547 1 0.113127 0.87667 0.268591
20089 3 0.0707563 0.369425 0.292845
20090 1 0.0990799 0.704977 0.292917
20092 1 0.127165 0.0408594 0.29291
20095 3 0.0707563 0.869426 0.292845
20096 1 0.0990799 0.204977 0.292917
20098 1 0.127165 0.540859 0.29291
19542 1 0.141242 0.713087 0.268611
19548 1 0.141242 0.213087 0.268611
19551 1 0.16937 0.0495138 0.268589
19557 1 0.16937 0.549514 0.268589
20101 1 0.155292 0.377163 0.292923
20102 1 0.183403 0.713653 0.292903
20107 1 0.155292 0.877163 0.292923
20108 1 0.183403 0.213653 0.292903
19553 1 0.197473 0.386183 0.268547
19554 1 0.225584 0.723263 0.268526
19559 1 0.197473 0.886183 0.268547
19560 1 0.225584 0.223263 0.268526
19563 1 0.253705 0.0609038 0.26852
19569 1 0.253705 0.560904 0.26852
20104 1 0.211512 0.0504364 0.29288
20110 1 0.211512 0.550436 0.29288
20113 1 0.239622 0.387695 0.292863
20119 1 0.239622 0.887695 0.292863
19565 1 0.281834 0.3991 0.268521
19566 1 0.309972 0.737924 0.268527
19571 1 0.281834 0.8991 0.268521
19572 1 0.309972 0.237924 0.268527
20114 1 0.267739 0.725536 0.292855
20116 1 0.295866 0.0640285 0.292854
20120 1 0.267739 0.225536 0.292855
20122 1 0.295866 0.564029 0.292854
20134 1 0.380305 0.584482 0.292909
19575 1 0.338116 0.0774505 0.268542
20132 1 0.352149 0.2434 0.292879
19577 1 0.366266 0.417738 0.268566
20131 1 0.324003 0.903284 0.292861
19581 1 0.338116 0.57745 0.268542
19583 1 0.366266 0.917738 0.268566
20128 1 0.380305 0.0844817 0.292909
20126 1 0.352149 0.7434 0.292879
20125 1 0.324003 0.403284 0.292861
20144 1 0.436637 0.269651 0.292988
20143 1 0.408468 0.926585 0.292948
20138 1 0.436637 0.76965 0.292988
20137 1 0.408468 0.426585 0.292948
19578 1 0.394421 0.758826 0.268598
19584 1 0.394421 0.258826 0.268598
19587 1 0.422579 0.100675 0.268634
19593 1 0.422579 0.600675 0.268634
20146 1 0.464809 0.613481 0.293018
20140 1 0.464809 0.113481 0.293018
19589 1 0.450739 0.443177 0.268665
19590 1 0.4789 0.78612 0.268682
19595 1 0.450739 0.943177 0.268665
19596 1 0.4789 0.28612 0.268682
20149 1 0.492982 0.457742 0.293027
20155 1 0.492982 0.957742 0.293027
20640 1 0.0567218 0.191408 0.365885
20639 3 0.0285356 0.855698 0.365958
20638 3 0.0426091 0.526852 0.341587
20634 1 0.0567218 0.691408 0.365885
20633 3 0.0285356 0.355697 0.365958
20632 3 0.0426091 0.0268526 0.341587
20081 3 0.0285356 0.363068 0.317216
20082 3 0.0566827 0.698104 0.317216
20087 3 0.0285356 0.863069 0.317216
20088 3 0.0566827 0.198105 0.317216
20651 1 0.113147 0.860244 0.365968
20650 1 0.127207 0.532304 0.34161
20649 1 0.0850573 0.525234 0.365955
20648 1 0.0991373 0.196733 0.341616
20647 1 0.071064 0.86126 0.341628
20645 1 0.113147 0.360244 0.365968
20644 1 0.127207 0.0323039 0.34161
20643 1 0.0850573 0.0252342 0.365955
20642 1 0.0991373 0.696733 0.341616
20641 1 0.071064 0.36126 0.341628
20091 1 0.0851577 0.0331621 0.317275
20093 1 0.113155 0.368653 0.317248
20097 1 0.0851577 0.533162 0.317275
20099 1 0.113155 0.868653 0.317248
20661 1 0.169323 0.531447 0.365956
20660 1 0.183379 0.204423 0.341594
20659 1 0.155285 0.868199 0.341604
20655 1 0.169323 0.0314469 0.365956
20654 1 0.183379 0.704423 0.341594
20653 1 0.155285 0.368199 0.341604
20652 1 0.141232 0.195654 0.365965
20646 1 0.141232 0.695654 0.365965
20094 1 0.141242 0.704634 0.317255
20100 1 0.141242 0.204634 0.317255
20103 1 0.169339 0.0409266 0.317251
20109 1 0.169339 0.540927 0.317251
20673 1 0.2536 0.541044 0.365897
20671 1 0.239573 0.877944 0.341556
20667 1 0.2536 0.0410438 0.365897
20665 1 0.239573 0.377944 0.341556
20664 1 0.225505 0.204061 0.36592
20663 1 0.197413 0.867559 0.365941
20662 1 0.211475 0.54097 0.341576
20658 1 0.225505 0.704061 0.36592
20657 1 0.197413 0.367559 0.365941
20656 1 0.211475 0.04097 0.341576
20105 1 0.197442 0.377471 0.317236
20106 1 0.225545 0.714376 0.317216
20111 1 0.197442 0.877471 0.317236
20112 1 0.225545 0.214376 0.317216
20115 1 0.253652 0.0517929 0.3172
20121 1 0.253652 0.551793 0.3172
20676 1 0.309805 0.217096 0.365857
20675 1 0.281699 0.878663 0.365875
20674 1 0.295788 0.553759 0.341523
20672 1 0.267677 0.215492 0.341537
20670 1 0.309805 0.717096 0.365857
20669 1 0.281699 0.378663 0.365875
20668 1 0.295788 0.053759 0.341523
20666 1 0.267677 0.715492 0.341537
20124 1 0.309892 0.228669 0.317186
20123 1 0.281767 0.889852 0.317189
20117 1 0.281767 0.389852 0.317189
20118 1 0.309892 0.728669 0.317186
20687 1 0.366061 0.897498 0.365848
20686 1 0.380203 0.574876 0.341545
20685 1 0.337924 0.556593 0.365846
20684 1 0.352048 0.233191 0.341523
20683 1 0.323911 0.892909 0.341517
20681 1 0.366061 0.397498 0.365848
20680 1 0.380203 0.0748761 0.341545
20679 1 0.337924 0.0565934 0.365846
20678 1 0.352048 0.733191 0.341523
20677 1 0.323911 0.392909 0.341517
20135 1 0.366179 0.909228 0.317214
20133 1 0.338029 0.568403 0.317193
20129 1 0.366179 0.409228 0.317214
20127 1 0.338029 0.0684034 0.317193
20697 1 0.422413 0.585304 0.365911
20696 1 0.436571 0.263402 0.341635
20695 1 0.408378 0.918235 0.341584
20691 1 0.422413 0.0853039 0.365911
20690 1 0.436571 0.763402 0.341635
20689 1 0.408378 0.418235 0.341584
20688 1 0.394222 0.240243 0.365869
20682 1 0.394222 0.740244 0.365869
20145 1 0.422518 0.594723 0.317294
20139 1 0.422518 0.0947227 0.317294
20136 1 0.394342 0.251306 0.317249
20130 1 0.394342 0.751306 0.317249
20700 1 0.478864 0.282686 0.366007
20699 1 0.450631 0.932933 0.365968
20698 1 0.464775 0.610166 0.341678
20694 1 0.478864 0.782686 0.366007
20693 1 0.450631 0.432934 0.365968
20692 1 0.464775 0.110166 0.341678
20148 1 0.478889 0.284893 0.317363
20147 1 0.450702 0.939366 0.317337
20142 1 0.478889 0.784893 0.317363
20141 1 0.450702 0.439367 0.317337
20707 1 0.492983 0.957894 0.341694
20701 1 0.492983 0.457894 0.341694
21742 1 0.0426594 0.511908 0.438991
21740 3 0.014462 0.176931 0.439072
21736 1 0.0426594 0.0119082 0.438991
21734 3 0.014462 0.67693 0.439072
21192 1 0.0570008 0.181583 0.41471
21191 3 0.0285356 0.847912 0.414701
21190 3 0.0426091 0.519065 0.390329
21188 3 0.014462 0.184665 0.390329
21186 1 0.0570008 0.681583 0.41471
21185 3 0.0285356 0.347911 0.414701
21184 3 0.0426091 0.0190651 0.390329
21182 3 0.014462 0.684665 0.390329
21754 1 0.127179 0.513391 0.439052
21752 1 0.0990859 0.178963 0.43905
21751 1 0.0709953 0.844888 0.439049
21748 1 0.127179 0.0133914 0.439052
21746 1 0.0990859 0.678963 0.43905
21745 1 0.0709953 0.344888 0.439049
21203 1 0.113141 0.850926 0.414685
21202 1 0.127182 0.523227 0.390324
21201 1 0.085064 0.516228 0.414675
21200 1 0.0990923 0.188167 0.39031
21199 1 0.0710629 0.85351 0.390293
21197 1 0.113141 0.350926 0.414685
21196 1 0.127182 0.0232268 0.390324
21195 1 0.085064 0.0162276 0.414675
21194 1 0.0990923 0.688167 0.39031
21193 1 0.0710629 0.35351 0.390293
21764 1 0.183368 0.182977 0.439038
21763 1 0.155275 0.848086 0.439049
21758 1 0.183368 0.682977 0.439038
21757 1 0.155275 0.348086 0.439049
21213 1 0.169315 0.521053 0.414679
21212 1 0.18336 0.194234 0.390309
21211 1 0.15527 0.858593 0.390321
21207 1 0.169315 0.0210526 0.414679
21206 1 0.18336 0.694234 0.390309
21205 1 0.15527 0.358593 0.390321
21204 1 0.141224 0.185872 0.414686
21198 1 0.141224 0.685872 0.414686
21775 1 0.239545 0.853546 0.439
21769 1 0.239545 0.353546 0.439
21766 1 0.211458 0.518115 0.439022
21760 1 0.211458 0.0181147 0.439022
21225 1 0.253577 0.528436 0.414618
21223 1 0.239538 0.866603 0.390267
21219 1 0.253577 0.0284359 0.414618
21217 1 0.239538 0.366603 0.390267
21216 1 0.225491 0.192257 0.414644
21215 1 0.197404 0.85649 0.414664
21214 1 0.211449 0.530213 0.390291
21210 1 0.225491 0.692257 0.414644
21209 1 0.197404 0.35649 0.414664
21208 1 0.211449 0.0302125 0.390291
21778 1 0.295708 0.525779 0.438944
21776 1 0.267628 0.189382 0.438974
21772 1 0.295708 0.0257791 0.438944
21770 1 0.267628 0.689382 0.438974
21228 1 0.309746 0.202676 0.41456
21227 1 0.281661 0.865177 0.41459
21226 1 0.29572 0.541132 0.390216
21224 1 0.267627 0.203515 0.390242
21222 1 0.309746 0.702676 0.41456
21221 1 0.281661 0.365177 0.41459
21220 1 0.29572 0.0411315 0.390216
21218 1 0.267627 0.703515 0.390242
21790 1 0.379941 0.541344 0.438834
21788 1 0.35186 0.201288 0.438874
21787 1 0.323784 0.862956 0.438911
21784 1 0.379941 0.0413438 0.438834
21782 1 0.35186 0.701287 0.438874
21781 1 0.323784 0.362956 0.438911
21239 1 0.365937 0.881278 0.414502
21238 1 0.380066 0.561085 0.390168
21237 1 0.337836 0.541226 0.414529
21236 1 0.351932 0.219505 0.390174
21235 1 0.323819 0.879681 0.390192
21233 1 0.365937 0.381279 0.414502
21232 1 0.380066 0.0610847 0.390168
21231 1 0.337836 0.0412259 0.414529
21230 1 0.351932 0.719505 0.390174
21229 1 0.323819 0.379681 0.390192
21800 1 0.436192 0.231951 0.438747
21799 1 0.408041 0.884114 0.438793
21794 1 0.436192 0.73195 0.438747
21793 1 0.408041 0.384113 0.438793
21249 1 0.422227 0.569222 0.41448
21248 1 0.436446 0.2526 0.390227
21247 1 0.408233 0.905132 0.390183
21243 1 0.422227 0.069223 0.41448
21242 1 0.436446 0.7526 0.390227
21241 1 0.408233 0.405132 0.390183
21240 1 0.39406 0.223527 0.414482
21234 1 0.39406 0.723527 0.414482
21802 1 0.464507 0.589668 0.438785
21796 1 0.464507 0.0896663 0.438785
21252 1 0.478807 0.27799 0.414588
21251 1 0.450475 0.920435 0.414522
21250 1 0.464704 0.603994 0.390288
21246 1 0.478807 0.777992 0.414588
21245 1 0.450475 0.420436 0.414522
21244 1 0.464704 0.103993 0.390288
21811 1 0.492981 0.95822 0.43887
21805 1 0.492981 0.458219 0.43887
21259 1 0.492983 0.958065 0.390313
21253 1 0.492983 0.458064 0.390313
21744 1 0.0569939 0.173388 0.463417
21743 3 0.0285356 0.839834 0.463443
21741 3 0.00038843 0.506135 0.463443
21738 1 0.0569939 0.673388 0.463417
21737 3 0.0285356 0.339833 0.463443
21735 3 0.00038843 0.0061358 0.463443
22286 3 0.014462 0.668997 0.487814
22288 1 0.0429019 0.00191776 0.487859
22292 3 0.014462 0.168997 0.487814
22294 1 0.0429019 0.501918 0.487859
21755 1 0.113141 0.841168 0.463417
21753 1 0.0850403 0.50716 0.463409
21749 1 0.113141 0.341168 0.463417
21747 1 0.0850403 0.00715952 0.463409
22297 1 0.0710211 0.335559 0.487784
22298 1 0.0991176 0.669187 0.487785
22300 1 0.127209 0.00296921 0.487787
22303 1 0.0710211 0.835559 0.487784
22304 1 0.0991176 0.169187 0.487785
22306 1 0.127209 0.502969 0.487787
21765 1 0.169338 0.50975 0.463411
21759 1 0.169338 0.00974997 0.463411
21756 1 0.141239 0.175387 0.463418
21750 1 0.141239 0.675387 0.463418
22309 1 0.155311 0.336864 0.487783
22310 1 0.183412 0.670821 0.487774
22315 1 0.155311 0.836864 0.487783
22316 1 0.183412 0.170821 0.487774
21777 1 0.253614 0.513917 0.46336
21771 1 0.253614 0.0139171 0.46336
21768 1 0.225525 0.178974 0.463382
21767 1 0.197433 0.84427 0.463399
21762 1 0.225525 0.678974 0.463382
21761 1 0.197433 0.34427 0.463399
22312 1 0.211511 0.00484374 0.487762
22318 1 0.211511 0.504844 0.487762
22321 1 0.239608 0.338954 0.487745
22327 1 0.239608 0.838954 0.487745
21780 1 0.309774 0.184981 0.463307
21779 1 0.281697 0.849204 0.463335
21774 1 0.309774 0.684981 0.463307
21773 1 0.281697 0.349204 0.463335
22322 1 0.267702 0.673193 0.487725
22324 1 0.29579 0.00762451 0.487703
22328 1 0.267702 0.173193 0.487725
22330 1 0.29579 0.507624 0.487703
21791 1 0.365903 0.859166 0.463233
21789 1 0.337843 0.521492 0.463274
21785 1 0.365903 0.359166 0.463233
21783 1 0.337843 0.0214927 0.463274
22333 1 0.32387 0.342352 0.48768
22334 1 0.351938 0.677579 0.487653
22336 1 0.379984 0.0136119 0.48762
22339 1 0.32387 0.842352 0.48768
22340 1 0.351938 0.177579 0.487653
22342 1 0.379984 0.513613 0.48762
21801 1 0.422002 0.541476 0.46311
21795 1 0.422002 0.0414761 0.46311
21792 1 0.393954 0.198708 0.463183
21786 1 0.393954 0.698709 0.463183
22345 1 0.40799 0.351014 0.487576
22346 1 0.435956 0.691061 0.48751
22351 1 0.40799 0.851014 0.487576
22352 1 0.435956 0.191063 0.48751
21804 1 0.478607 0.26264 0.463063
21803 1 0.450118 0.892025 0.46299
21798 1 0.478607 0.762641 0.463063
21797 1 0.450118 0.392026 0.46299
22348 1 0.464009 0.0415805 0.487354
22354 1 0.464009 0.541581 0.487354
22357 1 0.492979 0.458343 0.487403
22363 1 0.492979 0.958343 0.487403
22287 3 0.00038843 0.998383 0.512186
22289 3 0.0285356 0.331619 0.512186
22290 1 0.0570711 0.664253 0.512171
22293 3 0.00038843 0.498382 0.512186
22295 3 0.0285356 0.83162 0.512186
22296 1 0.0570711 0.164253 0.512171
22838 3 0.014462 0.661017 0.536557
22839 3 0.00038843 0.990661 0.560928
22840 1 0.0429059 0.993318 0.536486
22841 3 0.0285356 0.323441 0.560928
22842 1 0.057003 0.655612 0.56091
22844 3 0.014462 0.161017 0.536557
22845 3 0.00038843 0.49066 0.560928
22846 1 0.0429059 0.493318 0.536486
22847 3 0.0285356 0.823442 0.560928
22848 1 0.057003 0.155612 0.56091
22299 1 0.0851018 0.997462 0.512164
22301 1 0.113183 0.33089 0.51216
22305 1 0.0851018 0.497462 0.512164
22307 1 0.113183 0.83089 0.51216
22849 1 0.0710355 0.326361 0.536549
22850 1 0.0991416 0.659336 0.536538
22851 1 0.0850706 0.988191 0.560913
22852 1 0.127244 0.992383 0.536529
22853 1 0.113196 0.320884 0.560899
22855 1 0.0710355 0.826361 0.536549
22856 1 0.0991416 0.159336 0.536538
22857 1 0.0850706 0.488191 0.560913
22858 1 0.127244 0.492383 0.536529
22859 1 0.113196 0.820884 0.560899
22302 1 0.141283 0.664381 0.512155
22308 1 0.141283 0.164381 0.512155
22311 1 0.169388 0.99784 0.512147
22317 1 0.169388 0.49784 0.512147
22854 1 0.141316 0.653509 0.56089
22860 1 0.141316 0.153509 0.56089
22861 1 0.155357 0.325398 0.536519
22862 1 0.183472 0.658302 0.53651
22863 1 0.169437 0.985978 0.56088
22867 1 0.155357 0.825398 0.536519
22868 1 0.183472 0.158302 0.53651
22869 1 0.169437 0.485978 0.56088
22313 1 0.197495 0.331263 0.512137
22314 1 0.225602 0.664639 0.512124
22319 1 0.197495 0.831263 0.512137
22320 1 0.225602 0.164639 0.512124
22323 1 0.253707 0.997961 0.512109
22329 1 0.253707 0.497961 0.512109
22864 1 0.211587 0.991061 0.536499
22865 1 0.19756 0.318247 0.56087
22866 1 0.225684 0.650243 0.56086
22870 1 0.211587 0.491061 0.536499
22871 1 0.19756 0.818247 0.56087
22872 1 0.225684 0.150243 0.56086
22873 1 0.239703 0.323634 0.536487
22875 1 0.253809 0.981877 0.56085
22879 1 0.239703 0.823634 0.536487
22881 1 0.253809 0.481877 0.56085
22325 1 0.28181 0.331215 0.512093
22326 1 0.309908 0.66438 0.512078
22331 1 0.28181 0.831215 0.512093
22332 1 0.309908 0.16438 0.512078
22874 1 0.267819 0.655957 0.536475
22876 1 0.295934 0.98792 0.536466
22877 1 0.281935 0.313007 0.560844
22878 1 0.310061 0.643412 0.560844
22880 1 0.267819 0.155957 0.536475
22882 1 0.295934 0.48792 0.536466
22883 1 0.281935 0.813007 0.560844
22884 1 0.310061 0.143413 0.560844
22335 1 0.338 0.997428 0.512065
22337 1 0.366082 0.330258 0.512056
22341 1 0.338 0.497428 0.512065
22343 1 0.366082 0.830258 0.512056
22885 1 0.324047 0.319356 0.536461
22886 1 0.352157 0.649951 0.536466
22887 1 0.338186 0.972744 0.560856
22888 1 0.380264 0.979031 0.536489
22889 1 0.366308 0.300364 0.560888
22891 1 0.324047 0.819355 0.536461
22892 1 0.352157 0.149951 0.536466
22893 1 0.338186 0.472743 0.560856
22894 1 0.380264 0.47903 0.536489
22895 1 0.366308 0.800364 0.560888
22338 1 0.394143 0.662558 0.512054
22344 1 0.394143 0.162558 0.512054
22347 1 0.422181 0.99346 0.512069
22353 1 0.422181 0.493459 0.512069
22890 1 0.394426 0.625135 0.560956
22896 1 0.394426 0.125135 0.560956
22897 1 0.408368 0.305177 0.536547
22898 1 0.436492 0.625094 0.536676
22899 1 0.422541 0.945048 0.56109
22903 1 0.408368 0.805178 0.536547
22904 1 0.436492 0.125093 0.536676
22905 1 0.422541 0.445048 0.56109
22349 1 0.450264 0.320606 0.512136
22350 1 0.478538 0.625053 0.512406
22355 1 0.450264 0.820606 0.512136
22356 1 0.478538 0.125053 0.512406
22900 1 0.464635 0.929548 0.537021
22901 1 0.450651 0.256729 0.56137
22902 1 0.478812 0.559094 0.561723
22906 1 0.464635 0.429551 0.537021
22907 1 0.450651 0.75673 0.56137
22908 1 0.478812 0.0590921 0.561723
22909 1 0.492974 0.208547 0.537511
22915 1 0.492974 0.708543 0.537511
23390 3 0.014462 0.653148 0.585299
23392 3 0.0426091 0.985668 0.585299
23393 3 0.0285356 0.315468 0.609671
23394 1 0.0570011 0.646573 0.609591
23396 3 0.014462 0.153149 0.585299
23398 3 0.0426091 0.485667 0.585299
23399 3 0.0285356 0.815468 0.609671
23400 1 0.0570011 0.146573 0.609591
23401 1 0.0710058 0.317554 0.585263
23402 1 0.0991419 0.649858 0.585257
23403 1 0.0851123 0.979067 0.609613
23404 1 0.127267 0.982118 0.585257
23405 1 0.113222 0.311195 0.609621
23407 1 0.0710058 0.817554 0.585263
23408 1 0.0991419 0.149858 0.585257
23409 1 0.0851123 0.479067 0.609613
23410 1 0.127267 0.482118 0.585257
23411 1 0.113222 0.811195 0.609621
23406 1 0.141335 0.643094 0.609619
23412 1 0.141335 0.143094 0.609619
23413 1 0.155392 0.314263 0.58525
23414 1 0.183519 0.646162 0.58524
23415 1 0.169464 0.974739 0.609609
23419 1 0.155392 0.814263 0.58525
23420 1 0.183519 0.146162 0.58524
23421 1 0.169464 0.474739 0.609609
23416 1 0.211649 0.977741 0.585229
23417 1 0.197597 0.306033 0.609598
23418 1 0.225733 0.636879 0.609589
23422 1 0.211649 0.477741 0.585229
23423 1 0.197597 0.806033 0.609598
23424 1 0.225733 0.136879 0.609589
23425 1 0.23978 0.308896 0.585221
23427 1 0.25387 0.96716 0.609584
23431 1 0.23978 0.808896 0.585221
23433 1 0.25387 0.46716 0.609584
23426 1 0.267913 0.639492 0.585216
23428 1 0.296046 0.969308 0.585218
23429 1 0.282006 0.296686 0.609587
23430 1 0.31014 0.625201 0.609602
23432 1 0.267913 0.139492 0.585216
23434 1 0.296046 0.469308 0.585218
23435 1 0.282006 0.796686 0.609587
23436 1 0.31014 0.125201 0.609602
23437 1 0.324177 0.298033 0.585233
23438 1 0.352304 0.62517 0.585268
23439 1 0.338269 0.952339 0.609636
23440 1 0.380425 0.949945 0.585335
23441 1 0.366391 0.277597 0.609698
23443 1 0.324177 0.798033 0.585233
23444 1 0.352304 0.125169 0.585268
23445 1 0.338269 0.452339 0.609636
23446 1 0.380425 0.449946 0.585335
23447 1 0.366391 0.777597 0.609698
23442 1 0.394504 0.600355 0.609798
23448 1 0.394504 0.100355 0.609798
23449 1 0.408539 0.27124 0.585452
23450 1 0.436645 0.58767 0.585653
23451 1 0.422612 0.920008 0.609948
23455 1 0.408539 0.771239 0.585452
23456 1 0.436645 0.0876721 0.585653
23457 1 0.422612 0.420008 0.609948
23452 1 0.464772 0.899179 0.585904
23453 1 0.45073 0.236615 0.61013
23454 1 0.478884 0.551481 0.610254
23458 1 0.464772 0.399176 0.585904
23459 1 0.45073 0.736613 0.61013
23460 1 0.478884 0.0514831 0.610254
23461 1 0.492971 0.208677 0.586006
23467 1 0.492971 0.708682 0.586006
23942 3 0.014462 0.645537 0.634042
23944 3 0.0426091 0.977636 0.634042
23945 3 0.0285356 0.307842 0.658413
23946 3 0.0566827 0.639675 0.658413
23948 3 0.014462 0.145538 0.634042
23950 3 0.0426091 0.477636 0.634042
23951 3 0.0285356 0.807842 0.658413
23952 3 0.0566827 0.139676 0.658413
24496 3 0.0426091 0.970046 0.682784
24502 3 0.0426091 0.470046 0.682784
23953 1 0.0711077 0.309052 0.633965
23954 1 0.0991431 0.640807 0.633995
23955 1 0.0850368 0.97122 0.658341
23956 1 0.127265 0.972507 0.633988
23957 1 0.113157 0.30256 0.658356
23959 1 0.0711076 0.809052 0.633965
23960 1 0.0991431 0.140807 0.633995
23961 1 0.0850368 0.47122 0.658341
23962 1 0.127265 0.472507 0.633988
23963 1 0.113157 0.80256 0.658356
24505 3 0.0707563 0.301611 0.682784
24506 1 0.0990929 0.63293 0.68269
24508 1 0.127212 0.963981 0.682707
24511 3 0.0707563 0.801612 0.682784
24512 1 0.0990929 0.13293 0.68269
24514 1 0.127212 0.463981 0.682707
23958 1 0.141307 0.633738 0.658345
23964 1 0.141307 0.133738 0.658345
23965 1 0.155393 0.303938 0.633979
23966 1 0.18353 0.635028 0.633966
23967 1 0.16945 0.964649 0.658333
23971 1 0.155393 0.803938 0.633979
23972 1 0.18353 0.135028 0.633966
23973 1 0.16945 0.464649 0.658333
24517 1 0.155365 0.29477 0.682696
24518 1 0.183511 0.62524 0.682683
24523 1 0.155365 0.79477 0.682696
24524 1 0.183511 0.12524 0.682683
23968 1 0.21167 0.965688 0.633955
23969 1 0.197595 0.295188 0.658319
23970 1 0.22574 0.625233 0.658312
23974 1 0.21167 0.465688 0.633955
23975 1 0.197595 0.795188 0.658319
23976 1 0.22574 0.125233 0.658312
23977 1 0.239811 0.2958 0.633949
23979 1 0.253881 0.954649 0.658312
23983 1 0.239811 0.7958 0.633949
23985 1 0.253881 0.454649 0.658312
24520 1 0.21166 0.955287 0.682673
24526 1 0.21166 0.455287 0.682673
24529 1 0.239805 0.284776 0.682671
24535 1 0.239805 0.784776 0.682671
23978 1 0.26795 0.625218 0.633951
23980 1 0.296085 0.953734 0.633966
23981 1 0.282019 0.283277 0.658325
23982 1 0.31015 0.610926 0.658354
23984 1 0.26795 0.125218 0.633951
23986 1 0.296085 0.453734 0.633966
23987 1 0.282019 0.783277 0.658325
23988 1 0.31015 0.110926 0.658354
24530 1 0.267945 0.613571 0.682681
24532 1 0.296079 0.941541 0.682706
24536 1 0.267945 0.113571 0.682681
24538 1 0.296079 0.441541 0.682706
23989 1 0.324215 0.281091 0.633997
23990 1 0.352338 0.60696 0.634052
23991 1 0.338275 0.937389 0.658402
23992 1 0.380453 0.930983 0.634137
23993 1 0.366392 0.262449 0.658474
23995 1 0.324215 0.781091 0.633997
23996 1 0.352338 0.106961 0.634052
23997 1 0.338275 0.437389 0.658402
23998 1 0.380453 0.430983 0.634137
23999 1 0.366392 0.762449 0.658474
24541 1 0.324205 0.26854 0.682748
24542 1 0.352326 0.594437 0.68281
24544 1 0.380443 0.919149 0.682891
24547 1 0.324205 0.76854 0.682748
24548 1 0.352326 0.0944368 0.68281
24550 1 0.380443 0.419149 0.682891
23994 1 0.394505 0.585954 0.658571
24000 1 0.394505 0.0859546 0.658571
24001 1 0.408563 0.252873 0.634256
24002 1 0.436679 0.572685 0.634396