ITEM: TIMESTEP
41
ITEM: NUMBER OF ATOMS
2348
ITEM: BOX BOUNDS ss pp ss
-4.1409160050000004e+01 4.1409147969000003e+01
-4.1208122699999999e-01 4.5329187729999996e+00
-4.0155760290000003e+01 4.0660435401000001e+01
ITEM: ATOMS id type xs ys zs
17355 3 0.253713 0.0840606 0.0503597
17361 3 0.253713 0.58406 0.0503597
17356 3 0.295933 0.0917803 0.0253797
17357 3 0.28186 0.421397 0.0503597
17358 3 0.310007 0.758946 0.0503597
17362 3 0.295933 0.59178 0.0253797
17363 3 0.28186 0.921397 0.0503597
17364 3 0.310007 0.258946 0.0503597
16817 3 0.366301 0.436906 0.00039968
16823 3 0.366301 0.936906 0.00039968
17365 3 0.32408 0.429272 0.0253797
17366 3 0.352228 0.766937 0.0253797
17367 3 0.338154 0.0966991 0.0503597
17368 3 0.380375 0.104759 0.0253797
17369 1 0.366393 0.435826 0.0506835
17371 3 0.32408 0.929272 0.0253797
17372 3 0.352228 0.266937 0.0253797
17373 3 0.338154 0.596699 0.0503597
17374 3 0.380375 0.604758 0.0253797
17375 1 0.366393 0.935826 0.0506835
16818 3 0.394448 0.774596 0.00039968
16824 3 0.394448 0.274597 0.00039968
16827 3 0.422595 0.112393 0.00039968
16833 3 0.422595 0.612393 0.00039968
17370 1 0.39456 0.77336 0.050711
17376 1 0.39456 0.27336 0.0507111
17377 3 0.408522 0.442715 0.0253797
17378 3 0.436669 0.780782 0.0253797
17379 1 0.422639 0.111209 0.0505806
17383 3 0.408522 0.942716 0.0253797
17384 3 0.436669 0.280782 0.0253797
17385 1 0.422639 0.611208 0.0505806
16829 3 0.450743 0.45027 0.00039968
16830 3 0.47889 0.788202 0.00039968
16835 3 0.450743 0.950271 0.00039968
16836 3 0.47889 0.288202 0.00039968
17380 1 0.46482 0.118986 0.025423
17381 1 0.45076 0.449525 0.0505761
17382 1 0.478897 0.787997 0.0505881
17386 1 0.46482 0.618986 0.025423
17387 1 0.45076 0.949525 0.0505761
17388 1 0.478897 0.287997 0.0505881
17389 1 0.492965 0.4572 0.0254275
17395 1 0.492965 0.9572 0.0254275
18445 3 0.155198 0.397834 0.1253
18446 3 0.183345 0.734541 0.1253
18451 3 0.155198 0.897835 0.1253
18452 3 0.183345 0.234541 0.1253
17896 3 0.211492 0.0763272 0.0753397
17897 3 0.197418 0.405524 0.10032
17898 3 0.225565 0.742578 0.10032
17902 3 0.211492 0.576327 0.0753397
17903 3 0.197418 0.905524 0.10032
17904 3 0.225565 0.242579 0.10032
17905 3 0.239639 0.413428 0.0753397
17907 1 0.253901 0.08051 0.100556
17911 3 0.239639 0.913429 0.0753397
17913 1 0.253901 0.58051 0.100556
18448 1 0.211452 0.0705539 0.125383
18454 1 0.211452 0.570554 0.125383
18457 1 0.239779 0.40906 0.125588
18463 1 0.239779 0.90906 0.125588
17906 3 0.267786 0.75077 0.0753397
17908 1 0.296022 0.0890897 0.0756395
17909 1 0.282045 0.418179 0.100672
17910 1 0.310144 0.756079 0.100572
17912 3 0.267786 0.250771 0.0753397
17914 1 0.296022 0.58909 0.0756395
17915 1 0.282045 0.918179 0.100672
17916 1 0.310144 0.256079 0.100572
18458 1 0.267899 0.746894 0.125551
18460 1 0.296058 0.0850045 0.125553
18464 1 0.267899 0.246894 0.125551
18466 1 0.296058 0.585004 0.125553
17917 1 0.324227 0.426791 0.075634
17918 1 0.352323 0.764859 0.0755801
17919 1 0.338266 0.0942578 0.100541
17920 1 0.38047 0.103367 0.07562
17921 1 0.366389 0.432608 0.100553
17923 1 0.324227 0.926791 0.075634
17924 1 0.352323 0.264859 0.0755801
17925 1 0.338266 0.594258 0.100541
17926 1 0.38047 0.603367 0.07562
17927 1 0.366389 0.932608 0.100553
18469 1 0.324191 0.423149 0.125521
18470 1 0.352318 0.761619 0.12551
18472 1 0.380454 0.100401 0.125514
18475 1 0.324191 0.923149 0.125521
18476 1 0.352318 0.261619 0.12551
18478 1 0.380454 0.600401 0.125514
17922 1 0.394534 0.771295 0.100562
17928 1 0.394534 0.271295 0.100562
17929 1 0.408606 0.44165 0.0755763
17930 1 0.436716 0.779918 0.075528
17931 1 0.422664 0.110005 0.100536
17935 1 0.408606 0.94165 0.0755763
17936 1 0.436716 0.279918 0.075528
17937 1 0.422664 0.610005 0.100536
18481 1 0.408592 0.439448 0.125512
18482 1 0.436722 0.778624 0.125503
18487 1 0.408592 0.939448 0.125512
18488 1 0.436722 0.278624 0.125503
17932 1 0.464839 0.118526 0.0755213
17933 1 0.450784 0.448796 0.100515
17934 1 0.47891 0.787799 0.10051
17938 1 0.464839 0.618526 0.0755213
17939 1 0.450784 0.948796 0.100515
17940 1 0.47891 0.287799 0.10051
18484 1 0.464848 0.117947 0.125495
18490 1 0.464848 0.617947 0.125495
17941 1 0.492971 0.457282 0.0755236
17947 1 0.492971 0.957282 0.0755236
18493 1 0.492975 0.457404 0.125492
18499 1 0.492975 0.957404 0.125492
18988 3 0.127051 0.0556688 0.17526
18994 3 0.127051 0.555668 0.17526
18438 3 0.141124 0.726809 0.15028
18444 3 0.141124 0.22681 0.15028
18447 3 0.169271 0.0633915 0.15028
18453 3 0.169271 0.563391 0.15028
18997 3 0.155198 0.392095 0.17526
18998 1 0.183532 0.729087 0.175549
19003 3 0.155198 0.892096 0.17526
19004 1 0.183532 0.229087 0.175549
18449 1 0.197606 0.400903 0.15055
18450 1 0.225681 0.737583 0.150501
18455 1 0.197606 0.900903 0.15055
18456 1 0.225681 0.237583 0.150501
18459 1 0.2538 0.0753064 0.150484
18465 1 0.2538 0.575306 0.150484
19000 1 0.211615 0.0662512 0.175481
19006 1 0.211615 0.566251 0.175481
19009 1 0.239727 0.403517 0.175434
19015 1 0.239727 0.903517 0.175434
18461 1 0.281951 0.413301 0.150486
18462 1 0.310097 0.75162 0.150477
18467 1 0.281951 0.913301 0.150486
18468 1 0.310097 0.25162 0.150477
19010 1 0.267857 0.74134 0.175421
19012 1 0.295998 0.0795622 0.175417
19016 1 0.267857 0.24134 0.175421
19018 1 0.295998 0.579562 0.175417
18471 1 0.338235 0.0901467 0.150467
18473 1 0.366373 0.429035 0.15047
18477 1 0.338235 0.590147 0.150467
18479 1 0.366373 0.929035 0.15047
19021 1 0.324143 0.418166 0.175418
19022 1 0.352284 0.757171 0.175422
19024 1 0.380426 0.0966158 0.175432
19027 1 0.324143 0.918166 0.175418
19028 1 0.352284 0.257171 0.175422
19030 1 0.380426 0.596616 0.175432
18474 1 0.394512 0.768303 0.150478
18480 1 0.394512 0.268303 0.150478
18483 1 0.422649 0.107856 0.150481
18489 1 0.422649 0.607856 0.150481
19033 1 0.408567 0.436466 0.175444
19034 1 0.436706 0.776626 0.175453
19039 1 0.408567 0.936466 0.175444
19040 1 0.436706 0.276626 0.175453
18485 1 0.450781 0.447597 0.15048
18486 1 0.47891 0.787482 0.150479
18491 1 0.450781 0.947597 0.15048
18492 1 0.47891 0.287482 0.150479
19036 1 0.464841 0.117007 0.175458
19042 1 0.464841 0.617007 0.175458
19045 1 0.492974 0.457506 0.17546
19051 1 0.492974 0.957506 0.17546
18987 3 0.0848298 0.0484521 0.20024
18989 3 0.112977 0.384436 0.20024
18993 3 0.0848298 0.548452 0.20024
18995 3 0.112977 0.884436 0.20024
19537 3 0.0707563 0.377359 0.22522
19538 3 0.0989034 0.713141 0.22522
19540 1 0.12725 0.0499222 0.225471
19543 3 0.0707563 0.877359 0.22522
19544 3 0.0989034 0.213141 0.22522
19546 1 0.12725 0.549922 0.225471
18990 1 0.141091 0.720327 0.200356
18996 1 0.141091 0.220327 0.200356
18999 1 0.16932 0.0573252 0.200396
19005 1 0.16932 0.557325 0.200396
19549 1 0.155326 0.385785 0.2254
19550 1 0.183406 0.722257 0.225329
19555 1 0.155326 0.885785 0.2254
19556 1 0.183406 0.222257 0.225329
19001 1 0.197479 0.394472 0.200413
19002 1 0.225635 0.731647 0.200395
19007 1 0.197479 0.894472 0.200413
19008 1 0.225635 0.231647 0.200395
19011 1 0.253766 0.0691701 0.200367
19017 1 0.253766 0.56917 0.200367
19552 1 0.211544 0.0593704 0.225329
19558 1 0.211544 0.55937 0.225329
19561 1 0.239676 0.396733 0.225314
19567 1 0.239676 0.896733 0.225314
19013 1 0.281903 0.407185 0.200358
19014 1 0.310045 0.745719 0.200359
19019 1 0.281903 0.907185 0.200358
19020 1 0.310045 0.245719 0.200359
19562 1 0.26781 0.734523 0.225302
19564 1 0.295946 0.0728685 0.225298
19568 1 0.26781 0.234523 0.225302
19570 1 0.295946 0.572868 0.225298
19023 1 0.338188 0.0847592 0.200366
19025 1 0.366333 0.424325 0.200378
19029 1 0.338188 0.584759 0.200366
19031 1 0.366333 0.924325 0.200378
19573 1 0.324087 0.411817 0.225303
19574 1 0.352232 0.751397 0.225316
19576 1 0.38038 0.0916256 0.225336
19579 1 0.324087 0.911817 0.225303
19580 1 0.352232 0.251397 0.225316
19582 1 0.38038 0.591626 0.225336
19026 1 0.394478 0.764411 0.200396
19032 1 0.394478 0.264411 0.200396
19035 1 0.422623 0.104946 0.200414
19041 1 0.422623 0.604946 0.200414
19585 1 0.40853 0.432472 0.225361
19586 1 0.43668 0.773846 0.225385
19591 1 0.40853 0.932472 0.225361
19592 1 0.43668 0.273846 0.225385
19037 1 0.450765 0.44584 0.200428
19038 1 0.478905 0.786954 0.200436
19043 1 0.450765 0.94584 0.200428
19044 1 0.478905 0.286954 0.200436
19588 1 0.464828 0.115614 0.225402
19594 1 0.464828 0.615614 0.225402
19597 1 0.492974 0.457587 0.225408
19603 1 0.492974 0.957587 0.225408
19530 3 0.0566827 0.706252 0.2502
19536 3 0.0566827 0.206252 0.2502
20080 3 0.0426091 0.035158 0.27518
20082 3 0.0566827 0.699185 0.30016
20086 3 0.0426091 0.535157 0.27518
20088 3 0.0566827 0.199186 0.30016
19539 3 0.0848298 0.0418131 0.2502
19541 1 0.113231 0.377853 0.250443
19545 3 0.0848298 0.541813 0.2502
19547 1 0.113231 0.877853 0.250443
20089 3 0.0707563 0.370483 0.27518
20090 1 0.0992356 0.705772 0.275284
20091 1 0.0851418 0.0337016 0.300211
20092 1 0.12727 0.041811 0.27531
20093 1 0.113217 0.369559 0.300239
20095 3 0.0707563 0.870484 0.27518
20096 1 0.0992356 0.205772 0.275284
20097 1 0.0851419 0.533702 0.300211
20098 1 0.12727 0.541811 0.27531
20099 1 0.113217 0.869559 0.300239
19542 1 0.14131 0.714064 0.250374
19548 1 0.14131 0.214064 0.250374
19551 1 0.169394 0.0502407 0.250313
19557 1 0.169394 0.550241 0.250313
20094 1 0.141301 0.705626 0.300248
20100 1 0.141301 0.205626 0.300248
20101 1 0.155361 0.377992 0.275293
20102 1 0.18344 0.714375 0.27525
20103 1 0.169381 0.0418068 0.300225
20107 1 0.155361 0.877992 0.275293
20108 1 0.18344 0.214375 0.27525
20109 1 0.169381 0.541807 0.300225
19553 1 0.197485 0.386851 0.250275
19554 1 0.225599 0.723986 0.250261
19559 1 0.197485 0.886851 0.250275
19560 1 0.225599 0.223986 0.250261
19563 1 0.253722 0.0615611 0.250249
19569 1 0.253722 0.561561 0.250249
20104 1 0.211535 0.0511245 0.275222
20105 1 0.197472 0.378247 0.300196
20106 1 0.225568 0.715102 0.300169
20110 1 0.211535 0.551124 0.275222
20111 1 0.197472 0.878247 0.300196
20112 1 0.225568 0.215102 0.300169
20113 1 0.239642 0.388382 0.275203
20115 1 0.253672 0.0524764 0.300146
20119 1 0.239642 0.888382 0.275203
20121 1 0.253672 0.552476 0.300146
19565 1 0.28185 0.399664 0.25024
19566 1 0.309984 0.738402 0.250239
19571 1 0.28185 0.899664 0.25024
19572 1 0.309984 0.238402 0.250239
20114 1 0.267758 0.726164 0.275188
20116 1 0.295882 0.0645834 0.27518
20117 1 0.281784 0.390467 0.300129
20118 1 0.309907 0.729209 0.30012
20120 1 0.267758 0.226164 0.275188
20122 1 0.295882 0.564583 0.27518
20123 1 0.281784 0.890467 0.300129
20124 1 0.309907 0.229209 0.30012
19575 1 0.338126 0.0778552 0.250248
19577 1 0.366274 0.418081 0.250267
19581 1 0.338126 0.577855 0.250248
19583 1 0.366274 0.918081 0.250267
20135 1 0.366189 0.909612 0.300137
20134 1 0.380313 0.584813 0.275219
20133 1 0.338041 0.568862 0.300121
20125 1 0.324016 0.403755 0.275181
20126 1 0.35216 0.743796 0.275194
20127 1 0.338041 0.0688621 0.300121
20128 1 0.380313 0.0848129 0.275219
20129 1 0.366189 0.409612 0.300137
20131 1 0.324016 0.903755 0.275181
20132 1 0.35216 0.243796 0.275194
20145 1 0.422522 0.594946 0.300211
20144 1 0.43664 0.269826 0.275292
20143 1 0.408475 0.926844 0.275255
19578 1 0.394428 0.759109 0.250295
20139 1 0.422522 0.0949455 0.300211
19584 1 0.394428 0.259109 0.250295
20138 1 0.43664 0.769826 0.275292
20137 1 0.408475 0.426844 0.275255
19587 1 0.422584 0.100893 0.250327
20136 1 0.39435 0.251617 0.300169
19593 1 0.422584 0.600893 0.250327
20130 1 0.39435 0.751617 0.300169
20148 1 0.478885 0.284895 0.300281
20147 1 0.450702 0.939489 0.300254
20146 1 0.464808 0.613555 0.275322
20142 1 0.478885 0.784895 0.300281
20141 1 0.450702 0.439488 0.300254
20140 1 0.464808 0.113555 0.275322
19589 1 0.450741 0.443306 0.250355
19590 1 0.478897 0.786145 0.250372
19595 1 0.450741 0.943306 0.250355
19596 1 0.478897 0.286145 0.250372
20149 1 0.492976 0.457692 0.275333
20155 1 0.492977 0.957692 0.275333
21190 3 0.0426091 0.520228 0.3751
21188 3 0.014462 0.185768 0.3751
21184 3 0.0426091 0.0202282 0.3751
21182 3 0.014462 0.685768 0.3751
20640 3 0.0566827 0.191532 0.35012
20639 3 0.0285356 0.856801 0.35012
20638 3 0.0426091 0.527948 0.32514
20634 3 0.0566827 0.691532 0.35012
20633 3 0.0285356 0.3568 0.35012
20632 3 0.0426091 0.0279486 0.32514
21202 1 0.127169 0.524237 0.375092
21200 1 0.0990796 0.189141 0.375068
21199 1 0.0710942 0.854533 0.375122
21196 1 0.127169 0.0242367 0.375092
21194 1 0.0990796 0.689141 0.375068
21193 1 0.0710942 0.354533 0.375122
20651 1 0.1131 0.861357 0.35012
20650 1 0.127208 0.533378 0.325193
20649 1 0.0849859 0.526294 0.350087
20648 1 0.0991202 0.197837 0.325164
20647 1 0.0708377 0.863296 0.325052
20645 1 0.1131 0.361357 0.35012
20644 1 0.127208 0.0333777 0.325193
20643 1 0.0849859 0.0262943 0.350087
20642 1 0.0991202 0.697837 0.325164
20641 1 0.0708377 0.363296 0.325052
21212 1 0.183365 0.195219 0.375092
21211 1 0.155266 0.859618 0.3751
21206 1 0.183365 0.695219 0.375092
21205 1 0.155266 0.359618 0.3751
20661 1 0.169328 0.532483 0.350138
20660 1 0.183402 0.205361 0.32517
20659 1 0.155305 0.869239 0.32519
20655 1 0.169328 0.0324834 0.350138
20654 1 0.183402 0.705361 0.32517
20653 1 0.155305 0.369239 0.32519
20652 1 0.141221 0.196758 0.350142
20646 1 0.141221 0.696758 0.350142
21223 1 0.239552 0.867404 0.375045
21217 1 0.239552 0.367404 0.375045
21214 1 0.21146 0.531113 0.375072
21208 1 0.21146 0.0311126 0.375072
20673 1 0.253616 0.541788 0.350064
20671 1 0.239593 0.878699 0.325116
20667 1 0.253616 0.0417879 0.350064
20665 1 0.239593 0.378699 0.325116
20664 1 0.225522 0.204892 0.350092
20663 1 0.197427 0.8685 0.350118
20662 1 0.211496 0.541801 0.325143
20658 1 0.225522 0.704892 0.350092
20657 1 0.197427 0.3685 0.350118
20656 1 0.211496 0.0418012 0.325143
21226 1 0.295734 0.54177 0.374984
21224 1 0.267642 0.204241 0.375014
21220 1 0.295734 0.0417699 0.374984
21218 1 0.267642 0.704241 0.375014
20676 1 0.30982 0.217671 0.350012
20675 1 0.281714 0.879318 0.350036
20674 1 0.295804 0.554351 0.325071
20672 1 0.267695 0.216169 0.325091
20670 1 0.30982 0.717671 0.350012
20669 1 0.281714 0.379318 0.350036
20668 1 0.295804 0.0543511 0.325071
20666 1 0.267695 0.716169 0.325091
21238 1 0.380075 0.561465 0.374922
21236 1 0.351943 0.219975 0.374932
21235 1 0.323833 0.880239 0.374955
21232 1 0.380074 0.0614658 0.374922
21230 1 0.351943 0.719975 0.374932
21229 1 0.323833 0.380239 0.374955
20687 1 0.366071 0.897915 0.349993
20686 1 0.380212 0.575239 0.325078
20685 1 0.337937 0.557091 0.349996
20684 1 0.352059 0.233629 0.325059
20683 1 0.323925 0.893427 0.325059
20681 1 0.366071 0.397915 0.349993
20680 1 0.380212 0.075239 0.325078
20679 1 0.337937 0.0570906 0.349996
20678 1 0.352059 0.733629 0.325059
20677 1 0.323925 0.393427 0.325059
21248 1 0.436448 0.252772 0.374979
21247 1 0.408239 0.905413 0.374935
21242 1 0.436448 0.752773 0.374979
21241 1 0.408238 0.405413 0.374935
20697 1 0.422417 0.585534 0.350053
20696 1 0.436574 0.263576 0.325164
20695 1 0.408384 0.918513 0.325114
20691 1 0.422417 0.0855336 0.350053
20690 1 0.436574 0.763576 0.325164
20689 1 0.408384 0.418514 0.325114
20688 1 0.39423 0.240576 0.350011
20682 1 0.39423 0.740575 0.350011
21250 1 0.464703 0.604045 0.375042
21244 1 0.464703 0.104046 0.375042
20700 1 0.478861 0.282679 0.350151
20699 1 0.450631 0.933052 0.35011
20698 1 0.464773 0.610224 0.325209
20694 1 0.478861 0.782679 0.350151
20693 1 0.450631 0.433051 0.35011
20692 1 0.464773 0.110224 0.325209
21259 1 0.492977 0.957979 0.37507
21253 1 0.492977 0.457979 0.37507
20707 1 0.492978 0.957827 0.325227
20701 1 0.492978 0.457827 0.325227
21742 1 0.0426605 0.513054 0.424984
21740 3 0.014462 0.178075 0.42506
21736 1 0.0426605 0.0130541 0.424984
21734 3 0.014462 0.678074 0.42506
21192 1 0.0570047 0.182712 0.400113
21191 3 0.0285356 0.849069 0.40008
21186 1 0.0570047 0.682712 0.400113
21185 3 0.0285356 0.349068 0.40008
21754 1 0.127185 0.514433 0.425045
21752 1 0.099095 0.180087 0.425053
21751 1 0.0710011 0.846024 0.425054
21748 1 0.127185 0.014433 0.425045
21746 1 0.099095 0.680087 0.425053
21745 1 0.0710011 0.346024 0.425054
21203 1 0.113143 0.851961 0.400066
21201 1 0.0850784 0.517361 0.400081
21197 1 0.113143 0.351961 0.400066
21195 1 0.0850784 0.0173608 0.400081
21764 1 0.183375 0.183927 0.425032
21763 1 0.15528 0.849076 0.425041
21758 1 0.183375 0.683927 0.425032
21757 1 0.15528 0.349076 0.425041
21213 1 0.169317 0.522039 0.400065
21207 1 0.169317 0.0220389 0.400065
21204 1 0.141222 0.186872 0.400067
21198 1 0.141222 0.686872 0.400067
21775 1 0.239556 0.854346 0.424993
21769 1 0.239556 0.354347 0.424993
21766 1 0.211467 0.518992 0.425016
21760 1 0.211467 0.0189923 0.425016
21225 1 0.253589 0.529205 0.400002
21219 1 0.253589 0.0292045 0.400002
21216 1 0.225502 0.193106 0.40003
21215 1 0.197412 0.857427 0.400052
21210 1 0.225502 0.693106 0.40003
21209 1 0.197412 0.357427 0.400052
21778 1 0.29572 0.526425 0.424932
21776 1 0.26764 0.19011 0.424965
21772 1 0.29572 0.0264249 0.424932
21770 1 0.26764 0.69011 0.424965
21228 1 0.309759 0.203278 0.399935
21227 1 0.281674 0.865867 0.39997
21222 1 0.309759 0.703278 0.399935
21221 1 0.281674 0.365867 0.39997
21790 1 0.379949 0.541715 0.424811
21788 1 0.35187 0.201757 0.424854
21787 1 0.323796 0.863516 0.424895
21784 1 0.379948 0.041715 0.424811
21782 1 0.35187 0.701757 0.424854
21781 1 0.323796 0.363516 0.424895
21239 1 0.365946 0.881705 0.399869
21237 1 0.337848 0.541746 0.399901
21233 1 0.365946 0.381705 0.399869
21231 1 0.337848 0.0417455 0.399901
21800 1 0.436194 0.232115 0.42472
21799 1 0.408046 0.884385 0.424767
21794 1 0.436194 0.732115 0.42472
21793 1 0.408046 0.384386 0.424767
21249 1 0.422232 0.569449 0.399843
21243 1 0.422232 0.0694486 0.399843
21240 1 0.394067 0.223858 0.399846
21234 1 0.394067 0.723858 0.399846
21802 1 0.464505 0.589708 0.424759
21796 1 0.464505 0.0897092 0.424759
21252 1 0.478803 0.277966 0.399954
21251 1 0.450475 0.920547 0.399885
21246 1 0.478803 0.777965 0.399954
21245 1 0.450475 0.420546 0.399885
21811 1 0.492975 0.958118 0.424848
21805 1 0.492975 0.45812 0.424848
21744 1 0.0569961 0.174546 0.450022
21743 3 0.0285356 0.841024 0.45004
21741 3 0.00038843 0.50726 0.45004
21738 1 0.0569961 0.674546 0.450022
21737 3 0.0285356 0.341024 0.45004
21735 3 0.00038843 0.0072602 0.45004
22286 3 0.014462 0.67016 0.47502
22287 3 0.00038843 0.999515 0.5
22288 1 0.0429039 0.00309348 0.475071
22289 3 0.0285356 0.332819 0.5
22290 1 0.0570741 0.665432 0.499994
22292 3 0.014462 0.170161 0.47502
22293 3 0.00038843 0.499515 0.5
22294 1 0.0429039 0.503093 0.475071
22295 3 0.0285356 0.832819 0.5
22296 1 0.0570741 0.165432 0.499994
21755 1 0.113149 0.84226 0.450024
21753 1 0.085046 0.508296 0.450018
21749 1 0.113149 0.34226 0.450024
21747 1 0.085046 0.00829623 0.450018
22297 1 0.0710252 0.336712 0.474999
22298 1 0.0991242 0.670305 0.475001
22299 1 0.0851073 0.998612 0.499989
22300 1 0.127217 0.00403907 0.475001
22301 1 0.113192 0.331992 0.499984
22303 1 0.0710252 0.836712 0.474999
22304 1 0.0991242 0.170305 0.475001
22305 1 0.0851073 0.498612 0.499989
22306 1 0.127217 0.504039 0.475001
22307 1 0.113192 0.831992 0.499984
21765 1 0.169345 0.510721 0.450013
21759 1 0.169345 0.0107209 0.450013
21756 1 0.141246 0.176413 0.450021
21750 1 0.141246 0.676413 0.450021
22302 1 0.141293 0.665432 0.499977
22308 1 0.141293 0.165432 0.499977
22309 1 0.155319 0.337872 0.474995
22310 1 0.183421 0.671757 0.474985
22311 1 0.169399 0.998818 0.499968
22315 1 0.155319 0.837872 0.474995
22316 1 0.183421 0.171757 0.474985
22317 1 0.169399 0.498818 0.499968
21777 1 0.253625 0.514675 0.449961
21771 1 0.253625 0.0146748 0.449961
21768 1 0.225536 0.179802 0.449984
21767 1 0.197442 0.845173 0.450001
21762 1 0.225536 0.679802 0.449984
21761 1 0.197442 0.345173 0.450001
22312 1 0.211522 0.00569841 0.474972
22313 1 0.197507 0.332155 0.499957
22314 1 0.225613 0.665448 0.499944
22318 1 0.211522 0.505698 0.474972
22319 1 0.197507 0.832155 0.499957
22320 1 0.225613 0.165448 0.499944
22321 1 0.239619 0.339738 0.474955
22323 1 0.253719 0.998694 0.499929
22327 1 0.239619 0.839738 0.474955
22329 1 0.253719 0.498695 0.499929
21780 1 0.309785 0.185575 0.449903
21779 1 0.281709 0.849886 0.449934
21774 1 0.309785 0.685575 0.449903
21773 1 0.281709 0.349886 0.449934
22322 1 0.267713 0.6739 0.474934
22324 1 0.295801 0.00824894 0.474911
22325 1 0.281821 0.331866 0.499912
22326 1 0.309918 0.66494 0.499896
22328 1 0.267713 0.1739 0.474934
22330 1 0.295801 0.508249 0.474911
22331 1 0.281821 0.831866 0.499912
22332 1 0.309918 0.16494 0.499896
21791 1 0.365911 0.85957 0.449824
21789 1 0.337853 0.521995 0.449867
21785 1 0.365911 0.35957 0.449824
21783 1 0.337853 0.0219941 0.449867
22333 1 0.32388 0.342882 0.474885
22334 1 0.351946 0.678011 0.474857
22335 1 0.338009 0.997887 0.499882
22336 1 0.37999 0.0139426 0.474823
22337 1 0.366088 0.330613 0.499872
22339 1 0.32388 0.842881 0.474885
22340 1 0.351946 0.178011 0.474857
22341 1 0.338009 0.497886 0.499882
22342 1 0.37999 0.513942 0.474823
22343 1 0.366088 0.830614 0.499872
21801 1 0.422004 0.541683 0.449695
21795 1 0.422004 0.0416826 0.449695
21792 1 0.39396 0.199012 0.44977
21786 1 0.39396 0.699011 0.44977
22338 1 0.394147 0.662805 0.499869
22344 1 0.394147 0.162805 0.499869
22345 1 0.407993 0.351245 0.474776
22346 1 0.435956 0.691204 0.474709
22347 1 0.422182 0.993612 0.499885
22351 1 0.407993 0.851245 0.474776
22352 1 0.435956 0.191202 0.474709
22353 1 0.422182 0.493613 0.499885
21804 1 0.478603 0.262626 0.449648
21803 1 0.450118 0.892131 0.449572
21798 1 0.478603 0.762626 0.449648
21797 1 0.450118 0.392129 0.449572
22348 1 0.464007 0.0416575 0.474548
22349 1 0.450263 0.320669 0.499953
22363 1 0.492973 0.958253 0.474601
22354 1 0.464007 0.541657 0.474548
22355 1 0.450263 0.820668 0.499953
22357 1 0.492973 0.458254 0.474601
22838 3 0.014462 0.662177 0.52498
22839 3 0.00038843 0.991779 0.54996
22840 1 0.0429099 0.994526 0.524916
22841 3 0.0285356 0.324625 0.54996
22842 1 0.0570144 0.656893 0.549961
22844 3 0.014462 0.162178 0.52498
22845 3 0.00038843 0.491779 0.54996
22846 1 0.0429099 0.494526 0.524916
22847 3 0.0285356 0.824626 0.54996
22848 1 0.0570144 0.156893 0.549961
22849 1 0.0710416 0.327543 0.524984
22850 1 0.0991509 0.660471 0.524971
22851 1 0.0850854 0.989386 0.549956
22852 1 0.127256 0.993459 0.524959
22853 1 0.113212 0.321988 0.549938
22855 1 0.0710416 0.827543 0.524984
22856 1 0.0991509 0.160471 0.524971
22857 1 0.0850854 0.489386 0.549956
22858 1 0.127256 0.493459 0.524959
22859 1 0.113212 0.821988 0.549938
22854 1 0.141331 0.654549 0.549929
22860 1 0.141331 0.154549 0.549929
22861 1 0.15537 0.326411 0.524949
22862 1 0.183484 0.659227 0.524939
22863 1 0.169452 0.986937 0.549919
22867 1 0.15537 0.826411 0.524949
22868 1 0.183484 0.159227 0.524939
22869 1 0.169452 0.486937 0.549919
22864 1 0.211599 0.991897 0.524929
22865 1 0.197573 0.319108 0.54991
22866 1 0.225696 0.651019 0.5499
22870 1 0.211599 0.491897 0.524929
22871 1 0.197573 0.819108 0.54991
22872 1 0.225696 0.151019 0.5499
22873 1 0.239715 0.32439 0.524917
22875 1 0.253821 0.982572 0.549891
22879 1 0.239715 0.82439 0.524917
22881 1 0.253821 0.482572 0.549891
22874 1 0.26783 0.656629 0.524905
22876 1 0.295944 0.9885 0.524895
22877 1 0.281945 0.31361 0.549884
22878 1 0.310069 0.643916 0.549885
22880 1 0.26783 0.15663 0.524905
22882 1 0.295944 0.4885 0.524895
22883 1 0.281945 0.81361 0.549884
22884 1 0.310069 0.143916 0.549885
22885 1 0.324055 0.319837 0.52489
22886 1 0.352164 0.650328 0.524895
22887 1 0.338192 0.973146 0.549897
22888 1 0.380268 0.979299 0.524918
22889 1 0.366312 0.300658 0.54993
22891 1 0.324055 0.819837 0.52489
22892 1 0.352164 0.150328 0.524895
22893 1 0.338192 0.473146 0.549897
22894 1 0.380268 0.4793 0.524918
22895 1 0.366312 0.800657 0.54993
22890 1 0.394427 0.625322 0.55
22896 1 0.394427 0.125322 0.55
22897 1 0.408369 0.305344 0.524977
22898 1 0.436491 0.625157 0.525109
22899 1 0.422541 0.945133 0.550137
22903 1 0.408369 0.805343 0.524977
22904 1 0.436491 0.125158 0.525109
22905 1 0.422541 0.445133 0.550137
22900 1 0.464631 0.92952 0.525464
22901 1 0.450648 0.256725 0.550424
22902 1 0.478807 0.559022 0.550786
22906 1 0.464631 0.429518 0.525464
22907 1 0.450648 0.756724 0.550424
22908 1 0.478807 0.0590232 0.550786
22909 1 0.492968 0.208459 0.525967
22915 1 0.492968 0.708462 0.525967
22356 1 0.478534 0.125006 0.500231
22350 1 0.478534 0.625006 0.500231
23390 3 0.014462 0.654283 0.57494
23392 1 0.0426784 0.987354 0.574999
23393 3 0.0285356 0.316612 0.59992
23394 1 0.0570285 0.647916 0.599869
23396 3 0.014462 0.154284 0.57494
23398 1 0.0426784 0.487354 0.574999
23399 3 0.0285356 0.816612 0.59992
23400 1 0.0570285 0.147916 0.599869
23942 3 0.014462 0.646626 0.6249
23944 3 0.0426091 0.978783 0.6249
23948 3 0.014462 0.146627 0.6249
23950 3 0.0426091 0.478782 0.6249
23401 1 0.0710397 0.318812 0.574922
23402 1 0.0991657 0.650995 0.574908
23403 1 0.0851381 0.980265 0.599879
23404 1 0.127286 0.983182 0.574906
23405 1 0.113244 0.312293 0.599881
23407 1 0.0710397 0.818812 0.574922
23408 1 0.0991657 0.150995 0.574908
23409 1 0.0851381 0.480265 0.599879
23410 1 0.127286 0.483182 0.574906
23411 1 0.113244 0.812293 0.599881
23953 1 0.0711227 0.310261 0.624837
23954 1 0.0991639 0.64195 0.624863
23956 1 0.127286 0.97355 0.624857
23959 1 0.0711227 0.810261 0.624837
23960 1 0.0991639 0.14195 0.624863
23962 1 0.127286 0.47355 0.624857
23406 1 0.141355 0.644107 0.599878
23412 1 0.141355 0.144107 0.599878
23413 1 0.15541 0.31525 0.574899
23414 1 0.183534 0.647053 0.574889
23415 1 0.169481 0.975664 0.599869
23419 1 0.15541 0.81525 0.574899
23420 1 0.183534 0.147053 0.574889
23421 1 0.169481 0.475664 0.599869
23965 1 0.155411 0.304893 0.624849
23966 1 0.183546 0.635889 0.624837
23971 1 0.155411 0.804893 0.624849
23972 1 0.183546 0.135889 0.624837
23416 1 0.211662 0.978539 0.57488
23417 1 0.197611 0.306861 0.599858
23418 1 0.225745 0.637619 0.59985
23422 1 0.211662 0.478539 0.57488
23423 1 0.197611 0.806861 0.599858
23424 1 0.225745 0.137619 0.59985
23425 1 0.239792 0.309613 0.574872
23427 1 0.25388 0.967816 0.599846
23431 1 0.239792 0.809613 0.574872
23433 1 0.25388 0.467816 0.599846
23968 1 0.211683 0.966451 0.624827
23974 1 0.211683 0.466451 0.624827
23977 1 0.239821 0.296478 0.624821
23983 1 0.239821 0.796478 0.624821
23426 1 0.267923 0.640125 0.574867
23428 1 0.296054 0.969845 0.57487
23429 1 0.282014 0.297257 0.59985
23430 1 0.310146 0.625673 0.599866
23432 1 0.267923 0.140125 0.574867
23434 1 0.296054 0.469845 0.57487
23435 1 0.282014 0.797257 0.59985
23436 1 0.310146 0.125673 0.599866
23978 1 0.267957 0.625817 0.624825
23980 1 0.296091 0.954248 0.62484
23984 1 0.267957 0.125817 0.624825
23986 1 0.296091 0.454248 0.62484
23437 1 0.324183 0.298469 0.574886
23438 1 0.352308 0.625503 0.574921
23439 1 0.338274 0.952712 0.599901
23440 1 0.380427 0.950172 0.57499
23441 1 0.366393 0.277869 0.599964
23443 1 0.324183 0.798469 0.574886
23444 1 0.352308 0.125504 0.574921
23445 1 0.338274 0.452712 0.599901
23446 1 0.380427 0.450171 0.57499
23447 1 0.366393 0.777869 0.599964
23989 1 0.324219 0.28151 0.624873
23990 1 0.35234 0.607278 0.62493
23992 1 0.380453 0.931201 0.625017
23995 1 0.324219 0.78151 0.624873
23996 1 0.35234 0.107278 0.62493
23998 1 0.380453 0.431202 0.625017
23442 1 0.394504 0.600526 0.600067
23448 1 0.394504 0.100526 0.600067
23449 1 0.408538 0.271362 0.57511
23450 1 0.436643 0.587701 0.575316
23451 1 0.422609 0.920085 0.600221
23455 1 0.408539 0.771363 0.57511
23456 1 0.436643 0.0876998 0.575316
23457 1 0.422609 0.420085 0.600221
24001 1 0.408561 0.252999 0.625138
24002 1 0.436674 0.572727 0.625282
24007 1 0.408561 0.752998 0.625138
24008 1 0.436674 0.0727283 0.625282
23452 1 0.464767 0.899126 0.575573
23453 1 0.450726 0.236609 0.600406
23454 1 0.478878 0.551401 0.600533
23458 1 0.464767 0.399128 0.575573
23459 1 0.450726 0.73661 0.600406
23460 1 0.478878 0.0513998 0.600533
24004 1 0.464808 0.891027 0.625404
24010 1 0.464808 0.391025 0.625404
23461 1 0.492964 0.20857 0.575677
23467 1 0.492964 0.708566 0.575677
24013 1 0.492961 0.208732 0.62545
24019 1 0.492961 0.708734 0.62545
23945 3 0.0285356 0.308928 0.64988
23946 3 0.0566827 0.640816 0.64988
23951 3 0.0285356 0.808928 0.64988
23952 3 0.0566827 0.140816 0.64988
24496 3 0.0426091 0.971122 0.67486
24502 3 0.0426091 0.471121 0.67486
23955 1 0.0850554 0.972353 0.649808
23957 1 0.113179 0.303614 0.649831
23961 1 0.0850554 0.472353 0.649808
23963 1 0.113179 0.803614 0.649831
24505 1 0.0707999 0.302656 0.674847
24506 1 0.0991166 0.633943 0.674768
24508 1 0.127231 0.964942 0.674793
24511 1 0.0707999 0.802656 0.674847
24512 1 0.0991166 0.133943 0.674768
24514 1 0.127231 0.464942 0.674793
23958 1 0.141326 0.634705 0.649823
23964 1 0.141326 0.134705 0.649823
23967 1 0.169466 0.96553 0.649814
23973 1 0.169466 0.46553 0.649814
24517 1 0.15538 0.295663 0.674787
24518 1 0.183523 0.626044 0.674778
24523 1 0.15538 0.795663 0.674787
24524 1 0.183523 0.126044 0.674778
23969 1 0.197608 0.295973 0.649802
23970 1 0.225749 0.625925 0.649795
23975 1 0.197608 0.795973 0.649802
23976 1 0.225749 0.125925 0.649795
23979 1 0.253888 0.955264 0.649797
23985 1 0.253888 0.455264 0.649797
24520 1 0.211668 0.955996 0.674767
24526 1 0.211668 0.455996 0.674767
24529 1 0.23981 0.285405 0.674766
24535 1 0.23981 0.785405 0.674766
23981 1 0.282024 0.283817 0.64981
23982 1 0.310153 0.61139 0.64984
23987 1 0.282024 0.783817 0.64981
23988 1 0.310153 0.11139 0.64984
24530 1 0.267949 0.614134 0.674776
24532 1 0.296081 0.942037 0.674802
24536 1 0.267949 0.114134 0.674776
24538 1 0.296081 0.442037 0.674802
23991 1 0.338276 0.937762 0.64989
23993 1 0.366392 0.262721 0.649964
23997 1 0.338276 0.437762 0.64989
23999 1 0.366392 0.762721 0.649964
24541 1 0.324206 0.268954 0.674846
24542 1 0.352325 0.594758 0.674909
24544 1 0.38044 0.91938 0.674993
24547 1 0.324206 0.768954 0.674846
24548 1 0.352325 0.0947582 0.674909
24550 1 0.38044 0.41938 0.674993
24560 1 0.436679 0.0653748 0.675183
24559 1 0.408556 0.742851 0.675089
23994 1 0.394503 0.586132 0.650063
24000 1 0.394503 0.0861317 0.650063
24003 1 0.422617 0.908039 0.650179
24009 1 0.422617 0.40804 0.650179
24553 1 0.408556 0.242851 0.675089
24554 1 0.436679 0.565375 0.675183
24562 1 0.464815 0.387284 0.675253
24556 1 0.464815 0.887283 0.675253
24005 1 0.450743 0.22878 0.650287
24006 1 0.478885 0.548871 0.650353
24011 1 0.450743 0.72878 0.650288