ITEM: TIMESTEP
39
ITEM: NUMBER OF ATOMS
2350
ITEM: BOX BOUNDS ss pp ss
-4.1409160050000004e+01 4.1409147969000003e+01
-4.1208122699999999e-01 4.5329187729999996e+00
-4.1838085174000000e+01 4.0996900377999999e+01
ITEM: ATOMS id type xs ys zs
17356 3 0.295933 0.091518 0.0491324
17362 3 0.295933 0.591517 0.0491324
16817 3 0.366301 0.436733 0.0247612
16823 3 0.366301 0.936734 0.0247612
17365 3 0.32408 0.429035 0.0491324
17366 3 0.352228 0.766731 0.0491324
17368 3 0.380375 0.104586 0.0491324
17371 3 0.32408 0.929036 0.0491324
17372 3 0.352228 0.266731 0.0491324
17374 3 0.380375 0.604586 0.0491324
16818 3 0.394448 0.774456 0.0247612
16824 3 0.394448 0.274457 0.0247612
16827 3 0.422595 0.112288 0.0247612
16833 3 0.422595 0.612288 0.0247612
17377 3 0.408522 0.44258 0.0491324
17378 1 0.436778 0.780775 0.0492091
17383 3 0.408522 0.94258 0.0491324
17384 1 0.436778 0.280775 0.0492091
16828 3 0.464816 0.119463 0.00038994
16829 3 0.450743 0.450202 0.0247612
16830 3 0.47889 0.788172 0.0247612
16834 3 0.464816 0.619462 0.00038994
16835 3 0.450743 0.950203 0.0247612
16836 3 0.47889 0.288173 0.0247612
17380 1 0.464909 0.120059 0.0494969
17386 1 0.464909 0.620059 0.0494969
16837 3 0.492963 0.457224 0.00038994
16843 3 0.492963 0.957225 0.00038994
17389 1 0.492962 0.457308 0.049645
17395 1 0.492962 0.957308 0.049645
17895 3 0.169271 0.0683088 0.122246
17901 3 0.169271 0.568308 0.122246
17355 3 0.253713 0.0837405 0.0735036
17361 3 0.253713 0.58374 0.0735036
17896 3 0.211492 0.0759553 0.0978748
17897 3 0.197418 0.405116 0.122246
17898 3 0.225565 0.742181 0.122246
17902 3 0.211492 0.575955 0.0978748
17903 3 0.197418 0.905116 0.122246
17904 3 0.225565 0.242182 0.122246
17905 3 0.239639 0.41307 0.0978748
17907 1 0.25385 0.0803657 0.12248
17911 3 0.239639 0.913071 0.0978748
17913 1 0.25385 0.580366 0.12248
17357 3 0.28186 0.421097 0.0735036
17358 3 0.310007 0.758672 0.0735036
17363 3 0.28186 0.921098 0.0735036
17364 3 0.310007 0.258672 0.0735036
17906 3 0.267786 0.750431 0.0978748
17908 1 0.29603 0.0887661 0.0981674
17909 1 0.282036 0.417941 0.122586
17910 1 0.310154 0.755788 0.122489
17912 3 0.267786 0.250432 0.0978748
17914 1 0.29603 0.588766 0.0981674
17915 1 0.282036 0.917941 0.122586
17916 1 0.310154 0.255788 0.122489
17367 1 0.338243 0.0959877 0.0735356
17369 1 0.366441 0.435462 0.0738287
17373 1 0.338243 0.595988 0.0735356
17375 1 0.366441 0.935462 0.0738287
17917 1 0.324251 0.426437 0.0981612
17918 1 0.352363 0.76455 0.0981288
17919 1 0.338285 0.0939413 0.122469
17920 1 0.38051 0.103163 0.09816
17921 1 0.366414 0.432382 0.12249
17923 1 0.324251 0.926437 0.0981612
17924 1 0.352363 0.26455 0.0981288
17925 1 0.338285 0.593941 0.122469
17926 1 0.38051 0.603163 0.09816
17927 1 0.366414 0.932382 0.12249
17370 1 0.394602 0.77318 0.0738472
17376 1 0.394602 0.27318 0.0738472
17379 1 0.422698 0.111296 0.0736889
17385 1 0.422698 0.611296 0.0736889
17922 1 0.394555 0.771158 0.122501
17928 1 0.394555 0.271158 0.122501
17929 1 0.408642 0.441617 0.0981088
17930 1 0.436729 0.779975 0.0981155
17931 1 0.42267 0.109908 0.1225
17935 1 0.408642 0.941617 0.0981088
17936 1 0.436729 0.279975 0.0981155
17937 1 0.42267 0.609908 0.1225
17381 1 0.450821 0.450015 0.0738135
17382 1 0.478917 0.788335 0.0739093
17387 1 0.450821 0.950015 0.0738135
17388 1 0.478917 0.288335 0.0739093
17932 1 0.464844 0.118693 0.0982141
17933 1 0.450779 0.448732 0.122535
17934 1 0.478911 0.787821 0.12258
17938 1 0.464844 0.618693 0.0982141
17939 1 0.450779 0.948732 0.122535
17940 1 0.478911 0.287821 0.12258
17941 1 0.492975 0.457387 0.0982601
17947 1 0.492975 0.957387 0.0982601
18438 3 0.141124 0.72633 0.170988
18444 3 0.141124 0.22633 0.170988
18445 3 0.155198 0.397386 0.146617
18446 3 0.183345 0.734096 0.146617
18447 3 0.169271 0.0629108 0.170988
18451 3 0.155198 0.897387 0.146617
18452 3 0.183345 0.234097 0.146617
18453 3 0.169271 0.56291 0.170988
18448 1 0.211707 0.0715839 0.146829
18449 1 0.197642 0.399919 0.171249
18450 1 0.225721 0.737324 0.171206
18454 1 0.211707 0.571584 0.146829
18455 1 0.197642 0.899919 0.171249
18456 1 0.225721 0.237324 0.171206
18457 1 0.239857 0.409019 0.146924
18459 1 0.253856 0.0750648 0.171215
18463 1 0.239857 0.909019 0.146924
18465 1 0.253856 0.575065 0.171215
18458 1 0.267938 0.746601 0.146863
18460 1 0.296078 0.0846561 0.146862
18461 1 0.281984 0.412936 0.171199
18462 1 0.310118 0.75123 0.171188
18464 1 0.267938 0.246601 0.146863
18466 1 0.296078 0.584656 0.146862
18467 1 0.281984 0.912936 0.171199
18468 1 0.310118 0.25123 0.171188
18469 1 0.324206 0.422793 0.146837
18470 1 0.352333 0.761313 0.146834
18471 1 0.338248 0.0897885 0.171183
18472 1 0.380465 0.100171 0.146848
18473 1 0.366381 0.428735 0.171196
18475 1 0.324206 0.922793 0.146837
18476 1 0.352333 0.261313 0.146834
18477 1 0.338248 0.589788 0.171183
18478 1 0.380465 0.600171 0.146848
18479 1 0.366381 0.928735 0.171196
18474 1 0.394515 0.768045 0.171216
18480 1 0.394515 0.268045 0.171216
18481 1 0.408595 0.439249 0.146864
18482 1 0.436718 0.778442 0.146887
18483 1 0.422647 0.107622 0.17124
18487 1 0.408595 0.939249 0.146864
18488 1 0.436718 0.278442 0.146887
18489 1 0.422647 0.607622 0.17124
18484 1 0.464847 0.117839 0.146918
18485 1 0.45078 0.447421 0.171264
18486 1 0.478919 0.78744 0.171281
18490 1 0.464847 0.617839 0.146918
18491 1 0.45078 0.947421 0.171264
18492 1 0.478919 0.28744 0.171281
18493 1 0.492987 0.457445 0.146931
18499 1 0.492987 0.957445 0.146931
18987 3 0.0848298 0.0479257 0.219731
18988 3 0.127051 0.0551586 0.19536
18989 3 0.112977 0.383898 0.219731
18993 3 0.0848298 0.547925 0.219731
18994 3 0.127051 0.555158 0.19536
18995 3 0.112977 0.883898 0.219731
19537 3 0.0707563 0.376811 0.244102
19538 3 0.0989034 0.712577 0.244102
19540 1 0.127247 0.0491246 0.244358
19543 3 0.0707563 0.876812 0.244102
19544 3 0.0989034 0.212578 0.244102
19546 1 0.127247 0.549125 0.244358
18990 1 0.141089 0.719231 0.219871
18996 1 0.141089 0.219231 0.219871
18997 1 0.155229 0.390169 0.195451
18998 1 0.183476 0.727861 0.19552
18999 1 0.169334 0.0562184 0.219885
19003 1 0.155229 0.890169 0.195451
19004 1 0.183476 0.227861 0.19552
19005 1 0.169334 0.556218 0.219885
19549 1 0.15533 0.384867 0.244285
19550 1 0.183409 0.721363 0.244194
19555 1 0.15533 0.884867 0.244285
19556 1 0.183409 0.221363 0.244194
19000 1 0.211591 0.0654336 0.195534
19001 1 0.19746 0.393349 0.219847
19002 1 0.22562 0.730868 0.219856
19006 1 0.211591 0.565434 0.195534
19007 1 0.19746 0.893349 0.219847
19008 1 0.22562 0.230868 0.219856
19009 1 0.239738 0.40304 0.195539
19011 1 0.253766 0.0686227 0.219856
19015 1 0.239738 0.90304 0.195539
19017 1 0.253766 0.568623 0.219856
19552 1 0.211534 0.0584748 0.244179
19558 1 0.211534 0.558475 0.244179
19561 1 0.239668 0.396006 0.244181
19567 1 0.239668 0.896006 0.244181
19010 1 0.267878 0.740974 0.195534
19012 1 0.296017 0.0791798 0.195527
19013 1 0.281912 0.406756 0.219859
19014 1 0.310053 0.745326 0.219862
19016 1 0.267878 0.240974 0.195534
19018 1 0.296017 0.57918 0.195527
19019 1 0.281912 0.906756 0.219859
19020 1 0.310053 0.245326 0.219862
19562 1 0.267808 0.73397 0.244184
19564 1 0.295948 0.0724194 0.244189
19568 1 0.267808 0.23397 0.244184
19570 1 0.295948 0.572419 0.244189
19021 1 0.324155 0.417794 0.195528
19022 1 0.352292 0.75683 0.195539
19023 1 0.338195 0.0843931 0.219873
19024 1 0.380429 0.0963102 0.195559
19025 1 0.366337 0.42399 0.219892
19027 1 0.324155 0.917794 0.195528
19028 1 0.352292 0.25683 0.195539
19029 1 0.338195 0.584393 0.219873
19030 1 0.380429 0.59631 0.195559
19031 1 0.366337 0.92399 0.219892
19573 1 0.32409 0.411417 0.244199
19574 1 0.352235 0.751039 0.244218
19576 1 0.380384 0.0913099 0.244245
19579 1 0.32409 0.911417 0.244199
19580 1 0.352235 0.251039 0.244218
19582 1 0.380384 0.59131 0.244245
19026 1 0.394481 0.764112 0.21992
19032 1 0.394481 0.264112 0.21992
19033 1 0.408568 0.436196 0.195584
19034 1 0.436707 0.776413 0.195609
19035 1 0.422626 0.104713 0.219948
19039 1 0.408568 0.936196 0.195584
19040 1 0.436707 0.276413 0.195609
19041 1 0.422626 0.604713 0.219948
19585 1 0.408534 0.432216 0.244278
19586 1 0.436687 0.77368 0.24431
19591 1 0.408534 0.932216 0.244278
19592 1 0.436687 0.27368 0.24431
19036 1 0.464848 0.116904 0.195629
19037 1 0.450772 0.4457 0.219974
19038 1 0.47892 0.78695 0.219987
19042 1 0.464848 0.616904 0.195629
19043 1 0.450772 0.9457 0.219974
19044 1 0.47892 0.28695 0.219987
19588 1 0.464841 0.115561 0.244332
19594 1 0.464841 0.615561 0.244332
19045 1 0.492993 0.457564 0.195635
19051 1 0.492993 0.957564 0.195635
19597 1 0.492994 0.457673 0.244339
19603 1 0.492994 0.957673 0.244339
19530 3 0.0566827 0.705687 0.268473
19536 3 0.0566827 0.205687 0.268473
20080 3 0.0426091 0.0345784 0.292845
20086 3 0.0426091 0.534578 0.292845
19539 3 0.0848298 0.0412278 0.268473
19541 1 0.11323 0.377159 0.268714
19545 3 0.0848298 0.541227 0.268473
19547 1 0.11323 0.877159 0.268714
20089 3 0.0707563 0.36988 0.292845
20090 1 0.0992346 0.705119 0.292948
20092 1 0.127269 0.0411055 0.292974
20095 3 0.0707563 0.869881 0.292845
20096 1 0.0992347 0.205119 0.292948
20098 1 0.127269 0.541106 0.292974
19542 1 0.14131 0.713285 0.268648
19548 1 0.14131 0.213285 0.268648
19551 1 0.169396 0.0494428 0.26858
19557 1 0.169396 0.549443 0.26858
20101 1 0.155361 0.37726 0.292954
20102 1 0.18344 0.713643 0.292906
20107 1 0.155361 0.87726 0.292954
20108 1 0.18344 0.213643 0.292906
19553 1 0.197484 0.38606 0.268532
19554 1 0.225593 0.723225 0.268518
19559 1 0.197484 0.88606 0.268532
19560 1 0.225593 0.223225 0.268518
19563 1 0.253715 0.0609147 0.268515
19569 1 0.253715 0.560915 0.268515
20104 1 0.211532 0.0504058 0.292874
20110 1 0.211532 0.550406 0.292874
20113 1 0.239636 0.387703 0.292858
20119 1 0.239636 0.887702 0.292858
19565 1 0.281846 0.399128 0.268516
19566 1 0.309983 0.737948 0.268523
19571 1 0.281846 0.899128 0.268516
19572 1 0.309983 0.237948 0.268523
20114 1 0.267751 0.725567 0.29285
20116 1 0.295878 0.0640675 0.292849
20120 1 0.267751 0.225567 0.29285
20122 1 0.295878 0.564067 0.292849
19575 1 0.338127 0.0774598 0.268538
19577 1 0.366276 0.417743 0.268563
19581 1 0.338127 0.57746 0.268538
19583 1 0.366276 0.917743 0.268563
20134 1 0.380315 0.584504 0.292906
20132 1 0.352159 0.243427 0.292875
20131 1 0.324014 0.903317 0.292857
20125 1 0.324014 0.403317 0.292857
20126 1 0.352159 0.743427 0.292875
20128 1 0.380315 0.0845043 0.292906
20144 1 0.436648 0.269666 0.292989
20143 1 0.408478 0.926601 0.292947
20138 1 0.436648 0.769666 0.292989
19578 1 0.394431 0.758831 0.268597
20137 1 0.408478 0.426601 0.292947
19584 1 0.394431 0.258831 0.268597
19587 1 0.42259 0.100689 0.268635
19593 1 0.42259 0.600689 0.268635
20146 1 0.46482 0.613499 0.29302
20140 1 0.46482 0.113499 0.29302
19589 1 0.450751 0.443202 0.268668
19590 1 0.478913 0.786159 0.268685
19595 1 0.450751 0.943202 0.268668
19596 1 0.478913 0.286159 0.268685
20149 1 0.492994 0.457762 0.29303
20155 1 0.492994 0.957762 0.29303
20640 3 0.0566827 0.19087 0.365958
20639 3 0.0285356 0.856172 0.365958
20638 3 0.0426091 0.527323 0.341587
20634 3 0.0566827 0.690869 0.365958
20633 3 0.0285356 0.356171 0.365958
20632 3 0.0426091 0.0273237 0.341587
20082 3 0.0566827 0.698569 0.317216
20088 3 0.0566827 0.19857 0.317216
20651 1 0.113098 0.860691 0.365958
20650 1 0.127206 0.532702 0.341638
20649 1 0.0849849 0.52563 0.365925
20648 1 0.0991191 0.197169 0.341611
20647 1 0.0708365 0.862649 0.341502
20645 1 0.113098 0.360691 0.365958
20644 1 0.127206 0.0327019 0.341638
20643 1 0.0849849 0.0256297 0.365925
20642 1 0.0991191 0.697169 0.341611
20641 1 0.0708365 0.362649 0.341502
20091 1 0.0851409 0.0330552 0.317267
20093 1 0.113216 0.368883 0.317294
20097 1 0.0851409 0.533055 0.317267
20099 1 0.113216 0.868883 0.317294
20661 1 0.169326 0.531839 0.365972
20660 1 0.1834 0.204694 0.341612
20659 1 0.155303 0.868566 0.341634
20655 1 0.169326 0.0318386 0.365972
20654 1 0.1834 0.704694 0.341612
20653 1 0.155303 0.368566 0.341634
20652 1 0.141219 0.196098 0.365979
20646 1 0.141219 0.696098 0.365979
20094 1 0.1413 0.704936 0.317302
20100 1 0.1413 0.204936 0.317302
20103 1 0.169381 0.0411102 0.317276
20109 1 0.169381 0.54111 0.317276
20673 1 0.25361 0.54122 0.365899
20671 1 0.239587 0.878077 0.341558
20667 1 0.25361 0.0412201 0.365899
20665 1 0.239587 0.378077 0.341558
20664 1 0.225517 0.20429 0.365926
20663 1 0.197423 0.867865 0.365952
20662 1 0.211493 0.541153 0.341584
20658 1 0.225517 0.70429 0.365926
20657 1 0.197423 0.367865 0.365952
20656 1 0.211493 0.0411531 0.341584
20105 1 0.19747 0.377564 0.317244
20106 1 0.225563 0.714439 0.317216
20111 1 0.19747 0.877564 0.317244
20112 1 0.225563 0.214439 0.317216
20115 1 0.253666 0.0518505 0.317198
20121 1 0.253666 0.55185 0.317198
20676 1 0.309814 0.217217 0.365855
20675 1 0.281708 0.878806 0.365874
20674 1 0.295798 0.553846 0.341521
20672 1 0.267688 0.215595 0.341536
20670 1 0.309814 0.717217 0.365855
20669 1 0.281708 0.378806 0.365874
20668 1 0.295798 0.0538462 0.341521
20666 1 0.267688 0.715595 0.341536
20117 1 0.281778 0.389909 0.317186
20118 1 0.309902 0.728726 0.317182
20123 1 0.281778 0.889909 0.317186
20124 1 0.309902 0.228726 0.317182
20687 1 0.366068 0.897572 0.365845
20686 1 0.380212 0.574925 0.341542
20685 1 0.337932 0.556691 0.365843
20684 1 0.352057 0.233256 0.34152
20683 1 0.32392 0.892991 0.341514
20681 1 0.366068 0.397571 0.365845
20680 1 0.380212 0.0749255 0.341542
20679 1 0.337932 0.0566911 0.365843
20678 1 0.352057 0.733256 0.34152
20677 1 0.32392 0.392991 0.341514
20135 1 0.366188 0.909267 0.317211
20133 1 0.338038 0.568455 0.31719
20129 1 0.366188 0.409267 0.317211
20127 1 0.338038 0.0684549 0.31719
20697 1 0.422421 0.585341 0.36591
20696 1 0.43658 0.263423 0.341634
20695 1 0.408387 0.918271 0.341583
20691 1 0.422421 0.0853403 0.36591
20690 1 0.43658 0.763423 0.341634
20689 1 0.408387 0.418272 0.341583
20688 1 0.39423 0.2403 0.365866
20682 1 0.39423 0.7403 0.365866
20145 1 0.422527 0.594742 0.317293
20139 1 0.422527 0.0947417 0.317293
20136 1 0.394351 0.251334 0.317247
20130 1 0.394351 0.751334 0.317247
20700 1 0.478872 0.282695 0.366007
20699 1 0.450638 0.932958 0.365967
20698 1 0.464783 0.610181 0.341679
20694 1 0.478872 0.782695 0.366007
20693 1 0.450638 0.432957 0.365967
20692 1 0.464783 0.110181 0.341679
20148 1 0.478899 0.284901 0.317364
20147 1 0.450711 0.939378 0.317337
20142 1 0.478899 0.784901 0.317364
20141 1 0.450711 0.439378 0.317337
20707 1 0.492992 0.957902 0.341695
20701 1 0.492992 0.457903 0.341695
21742 1 0.0426596 0.512406 0.438997
21740 3 0.014462 0.177422 0.439072
21736 1 0.0426596 0.0124058 0.438997
21734 3 0.014462 0.677421 0.439072
21192 1 0.0570036 0.18206 0.414732
21191 3 0.0285356 0.848408 0.414701
21190 3 0.0426091 0.519564 0.390329
21188 3 0.014462 0.185139 0.390329
21186 1 0.0570036 0.68206 0.414732
21185 3 0.0285356 0.348408 0.414701
21184 3 0.0426091 0.0195646 0.390329
21182 3 0.014462 0.685138 0.390329
21754 1 0.127182 0.51382 0.439055
21752 1 0.0990933 0.179455 0.439063
21751 1 0.0709999 0.845386 0.439064
21748 1 0.127182 0.0138198 0.439055
21746 1 0.0990933 0.679455 0.439063
21745 1 0.0709999 0.345386 0.439064
21203 1 0.113141 0.85132 0.414685
21202 1 0.127167 0.523589 0.390321
21201 1 0.0850767 0.516713 0.4147
21200 1 0.099078 0.188486 0.390297
21199 1 0.0710934 0.853877 0.390351
21197 1 0.113141 0.35132 0.414685
21196 1 0.127167 0.0235891 0.390321
21195 1 0.0850767 0.0167132 0.4147
21194 1 0.099078 0.688486 0.390297
21193 1 0.0710934 0.353877 0.390351
21764 1 0.18337 0.183342 0.43904
21763 1 0.155276 0.848477 0.43905
21758 1 0.18337 0.683342 0.43904
21757 1 0.155276 0.348477 0.43905
21213 1 0.169314 0.521426 0.414682
21212 1 0.183362 0.194601 0.390317
21211 1 0.155264 0.858986 0.390327
21207 1 0.169314 0.0214262 0.414682
21206 1 0.183362 0.694601 0.390317
21205 1 0.155264 0.358986 0.390327
21204 1 0.14122 0.18625 0.414686
21198 1 0.14122 0.68625 0.414686
21775 1 0.23955 0.853838 0.439001
21769 1 0.23955 0.353838 0.439001
21766 1 0.211462 0.518444 0.439024
21760 1 0.211462 0.0184435 0.439024
21225 1 0.253583 0.528691 0.414619
21223 1 0.239546 0.866851 0.390271
21219 1 0.253583 0.0286912 0.414619
21217 1 0.239546 0.366851 0.390271
21216 1 0.225497 0.192558 0.414647
21215 1 0.197407 0.856837 0.414668
21214 1 0.211455 0.530521 0.390297
21210 1 0.225497 0.692558 0.414647
21209 1 0.197407 0.356837 0.414668
21208 1 0.211455 0.0305214 0.390297
21778 1 0.295714 0.52599 0.438942
21776 1 0.267634 0.189634 0.438974
21772 1 0.295714 0.02599 0.438942
21770 1 0.267634 0.689634 0.438974
21228 1 0.309753 0.202854 0.414558
21227 1 0.281668 0.865386 0.414589
21226 1 0.295728 0.541298 0.390214
21224 1 0.267636 0.203714 0.390243
21222 1 0.309753 0.702854 0.414558
21221 1 0.281668 0.365386 0.414589
21220 1 0.295728 0.0412979 0.390214
21218 1 0.267636 0.703714 0.390243
21790 1 0.379947 0.541454 0.438831
21788 1 0.351866 0.201433 0.438871
21787 1 0.32379 0.863139 0.438908
21784 1 0.379947 0.0414544 0.438831
21782 1 0.351866 0.701433 0.438871
21781 1 0.32379 0.363139 0.438908
21239 1 0.365943 0.881389 0.414498
21238 1 0.380073 0.561164 0.390165
21237 1 0.337842 0.541373 0.414526
21236 1 0.351939 0.219611 0.39017
21235 1 0.323827 0.879819 0.390189
21233 1 0.365943 0.381389 0.414498
21232 1 0.380073 0.061164 0.390165
21231 1 0.337842 0.0413729 0.414526
21230 1 0.351939 0.719611 0.39017
21229 1 0.323827 0.379819 0.390189
21800 1 0.436196 0.231991 0.438746
21799 1 0.408046 0.884189 0.43879
21794 1 0.436196 0.731991 0.438746
21793 1 0.408046 0.38419 0.43879
21249 1 0.422233 0.569276 0.414478
21248 1 0.436452 0.252638 0.390225
21247 1 0.408239 0.90519 0.390181
21243 1 0.422233 0.0692755 0.414478
21242 1 0.436452 0.752638 0.390225
21241 1 0.408239 0.40519 0.390181
21240 1 0.394066 0.223608 0.414479
21234 1 0.394066 0.723608 0.414479
21802 1 0.464511 0.589671 0.438785
21796 1 0.464511 0.0896725 0.438785
21252 1 0.478812 0.277983 0.414589
21251 1 0.45048 0.92046 0.41452
21250 1 0.46471 0.604007 0.390288
21246 1 0.478812 0.777982 0.414589
21245 1 0.45048 0.420459 0.41452
21244 1 0.46471 0.104008 0.390288
21811 1 0.492985 0.958184 0.438872
21805 1 0.492985 0.458186 0.438872
21259 1 0.492989 0.958051 0.390314
21253 1 0.492989 0.458052 0.390314
21744 1 0.0569952 0.173894 0.463425
21743 3 0.0285356 0.840344 0.463443
21741 3 0.00038843 0.506617 0.463443
21738 1 0.0569952 0.673894 0.463425
21737 3 0.0285356 0.340344 0.463443
21735 3 0.00038843 0.00661801 0.463443
22286 3 0.014462 0.669496 0.487814
22288 1 0.0429026 0.00242987 0.487864
22292 3 0.014462 0.169496 0.487814
22294 1 0.0429026 0.50243 0.487864
21755 1 0.113146 0.841648 0.463425
21753 1 0.0850442 0.507667 0.46342
21749 1 0.113146 0.341648 0.463425
21747 1 0.0850442 0.00766719 0.46342
22297 1 0.0710231 0.336072 0.487793
22298 1 0.0991213 0.669695 0.487793
22300 1 0.127214 0.00344655 0.487791
22303 1 0.0710231 0.836072 0.487793
22304 1 0.0991213 0.169695 0.487793
22306 1 0.127214 0.503447 0.487791
21765 1 0.169341 0.510139 0.463412
21759 1 0.169341 0.0101386 0.463412
21756 1 0.141243 0.175818 0.46342
21750 1 0.141243 0.675818 0.46342
22309 1 0.155315 0.337297 0.487785
22310 1 0.183417 0.671208 0.487775
22315 1 0.155315 0.837297 0.487785
22316 1 0.183417 0.171208 0.487775
21777 1 0.253619 0.514198 0.46336
21771 1 0.253619 0.014198 0.46336
21768 1 0.22553 0.17929 0.463383
21767 1 0.197437 0.844623 0.4634
21762 1 0.22553 0.67929 0.463383
21761 1 0.197437 0.344623 0.4634
22312 1 0.211516 0.00519045 0.487761
22318 1 0.211516 0.50519 0.487761
22321 1 0.239614 0.339258 0.487744
22327 1 0.239614 0.839258 0.487744
21780 1 0.30978 0.185193 0.463304
21779 1 0.281703 0.84945 0.463334
21774 1 0.30978 0.685193 0.463304
21773 1 0.281703 0.34945 0.463334
22322 1 0.267708 0.673465 0.487724
22324 1 0.295796 0.00786454 0.487701
22328 1 0.267708 0.173465 0.487724
22330 1 0.295796 0.507865 0.487701
21791 1 0.365909 0.859302 0.46323
21789 1 0.337849 0.521669 0.46327
21785 1 0.365909 0.359302 0.46323
21783 1 0.337849 0.0216685 0.46327
22333 1 0.323876 0.342554 0.487676
22334 1 0.351943 0.67774 0.487649
22336 1 0.379989 0.0137379 0.487617
22339 1 0.323876 0.842554 0.487676
22340 1 0.351943 0.17774 0.487649
22342 1 0.379989 0.513737 0.487617
21801 1 0.422006 0.541543 0.463108
21795 1 0.422006 0.0415431 0.463108
21792 1 0.393959 0.198813 0.46318
21786 1 0.393959 0.698812 0.46318
22345 1 0.407994 0.351105 0.487573
22346 1 0.435959 0.691116 0.487509
22351 1 0.407994 0.851105 0.487573
22352 1 0.435959 0.191114 0.487509
21804 1 0.47861 0.262635 0.463064
21803 1 0.450121 0.892054 0.462989
21798 1 0.47861 0.762634 0.463064
21797 1 0.450121 0.392052 0.462989
22348 1 0.464012 0.0416089 0.487354
22354 1 0.464012 0.541609 0.487354
22357 1 0.49298 0.458325 0.487405
22363 1 0.49298 0.958324 0.487405
22287 3 0.00038843 0.998868 0.512186
22289 3 0.0285356 0.332133 0.512186
22290 1 0.057073 0.664783 0.512179
22293 3 0.00038843 0.498868 0.512186
22295 3 0.0285356 0.832134 0.512186
22296 1 0.057073 0.164783 0.512179
22838 3 0.014462 0.661514 0.536557
22839 3 0.00038843 0.99114 0.560928
22840 1 0.0429089 0.993865 0.536494
22841 3 0.0285356 0.323948 0.560928
22842 1 0.0570124 0.656246 0.560928
22844 3 0.014462 0.161514 0.536557
22845 3 0.00038843 0.491139 0.560928
22846 1 0.0429089 0.493865 0.536494
22847 3 0.0285356 0.823949 0.560928
22848 1 0.0570124 0.156246 0.560928
22299 1 0.085105 0.997998 0.512173
22301 1 0.113188 0.331411 0.512166
22305 1 0.085105 0.497998 0.512173
22307 1 0.113188 0.831411 0.512166
22849 1 0.0710394 0.326924 0.536559
22850 1 0.0991479 0.659895 0.536545
22851 1 0.0850826 0.988792 0.560922
22852 1 0.127251 0.9929 0.536532
22853 1 0.113207 0.321434 0.560902
22855 1 0.0710394 0.826924 0.536559
22856 1 0.0991479 0.159895 0.536545
22857 1 0.0850826 0.488792 0.560922
22858 1 0.127251 0.4929 0.536532
22859 1 0.113207 0.821434 0.560902
22302 1 0.141288 0.664857 0.512157
22308 1 0.141288 0.164857 0.512157
22311 1 0.169394 0.998268 0.512148
22317 1 0.169394 0.498268 0.512148
22854 1 0.141326 0.654004 0.560891
22860 1 0.141326 0.154004 0.560891
22861 1 0.155365 0.325862 0.53652
22862 1 0.183479 0.658715 0.536509
22863 1 0.169447 0.986423 0.56088
22867 1 0.155365 0.825862 0.53652
22868 1 0.183479 0.158715 0.536509
22869 1 0.169447 0.486423 0.56088
22313 1 0.197501 0.331642 0.512137
22314 1 0.225608 0.664973 0.512123
22319 1 0.197501 0.831642 0.512137
22320 1 0.225608 0.164973 0.512123
22323 1 0.253713 0.998253 0.512107
22329 1 0.253713 0.498254 0.512107
22864 1 0.211594 0.991427 0.536498
22865 1 0.197568 0.318645 0.560869
22866 1 0.225691 0.650591 0.560858
22870 1 0.211594 0.491427 0.536498
22871 1 0.197568 0.818645 0.560869
22872 1 0.225691 0.150591 0.560858
22873 1 0.23971 0.323953 0.536485
22875 1 0.253816 0.982181 0.560848
22879 1 0.23971 0.823953 0.536485
22881 1 0.253816 0.482181 0.560848
22325 1 0.281816 0.33148 0.512091
22326 1 0.309915 0.664608 0.512075
22331 1 0.281816 0.83148 0.512091
22332 1 0.309915 0.164608 0.512075
22874 1 0.267825 0.656239 0.536472
22876 1 0.29594 0.98817 0.536462
22877 1 0.281941 0.313279 0.560841
22878 1 0.310066 0.643655 0.560841
22880 1 0.267825 0.156239 0.536472
22882 1 0.29594 0.48817 0.536462
22883 1 0.281941 0.813279 0.560841
22884 1 0.310066 0.143655 0.560841
22335 1 0.338006 0.997619 0.512062
22337 1 0.366086 0.330408 0.512053
22341 1 0.338006 0.497619 0.512062
22343 1 0.366086 0.830408 0.512053
22885 1 0.324052 0.31957 0.536458
22886 1 0.352162 0.650127 0.536463
22887 1 0.33819 0.972946 0.560853
22888 1 0.380267 0.979169 0.536486
22889 1 0.366311 0.300526 0.560885
22891 1 0.324052 0.81957 0.536458
22892 1 0.352162 0.150126 0.536463
22893 1 0.33819 0.472947 0.560853
22894 1 0.380267 0.47917 0.536486
22895 1 0.366311 0.800526 0.560885
22338 1 0.394147 0.662671 0.512051
22344 1 0.394147 0.162671 0.512051
22347 1 0.422184 0.993537 0.512067
22353 1 0.422184 0.493538 0.512067
22890 1 0.394428 0.62526 0.560954
22896 1 0.394428 0.12526 0.560954
22897 1 0.408371 0.305282 0.536545
22898 1 0.436495 0.625158 0.536674
22899 1 0.422543 0.945139 0.561089
22903 1 0.408371 0.805281 0.536545
22904 1 0.436495 0.125159 0.536674
22905 1 0.422543 0.445138 0.561089
22349 1 0.450267 0.320643 0.512135
22350 1 0.47854 0.625046 0.512406
22355 1 0.450267 0.820642 0.512135
22356 1 0.47854 0.125046 0.512406
22900 1 0.464637 0.929581 0.537021
22901 1 0.450652 0.256784 0.56137
22902 1 0.478812 0.559112 0.561724
22906 1 0.464637 0.429578 0.537021
22907 1 0.450652 0.756783 0.56137
22908 1 0.478812 0.0591138 0.561724
22909 1 0.492974 0.208543 0.537512
22915 1 0.492974 0.708546 0.537512
23390 3 0.014462 0.653634 0.585299
23392 1 0.0426772 0.986695 0.585356
23393 3 0.0285356 0.315957 0.609671
23394 1 0.0570265 0.647274 0.60962
23396 3 0.014462 0.153634 0.585299
23398 1 0.0426772 0.486695 0.585356
23399 3 0.0285356 0.815958 0.609671
23400 1 0.0570265 0.147274 0.60962
23401 1 0.0710373 0.318192 0.58528
23402 1 0.099162 0.650423 0.585266
23403 1 0.0851347 0.979668 0.609629
23404 1 0.127281 0.982638 0.58526
23405 1 0.113238 0.311739 0.609629
23407 1 0.0710373 0.818192 0.58528
23408 1 0.099162 0.150423 0.585266
23409 1 0.0851347 0.479668 0.609629
23410 1 0.127281 0.482638 0.58526
23411 1 0.113238 0.811739 0.609629
23406 1 0.141348 0.643591 0.609623
23412 1 0.141348 0.143591 0.609623
23413 1 0.155404 0.314732 0.58525
23414 1 0.183529 0.646586 0.585239
23415 1 0.169475 0.975193 0.60961
23419 1 0.155404 0.814732 0.58525
23420 1 0.183529 0.146586 0.585239
23421 1 0.169475 0.475193 0.60961
23416 1 0.211656 0.978116 0.585228
23417 1 0.197606 0.306442 0.609597
23418 1 0.22574 0.637243 0.609587
23422 1 0.211656 0.478116 0.585228
23423 1 0.197606 0.806442 0.609597
23424 1 0.22574 0.137243 0.609587
23425 1 0.239787 0.309224 0.585219
23427 1 0.253876 0.967481 0.609582
23431 1 0.239787 0.809224 0.585219
23433 1 0.253876 0.467481 0.609582
23426 1 0.267919 0.639785 0.585213
23428 1 0.296051 0.969574 0.585215
23429 1 0.282012 0.296973 0.609584
23430 1 0.310144 0.625457 0.609599
23432 1 0.267919 0.139785 0.585213
23434 1 0.296051 0.469575 0.585215
23435 1 0.282012 0.796973 0.609584
23436 1 0.310144 0.125457 0.609599
23437 1 0.324181 0.298268 0.58523
23438 1 0.352307 0.625363 0.585265
23439 1 0.338272 0.952558 0.609633
23440 1 0.380428 0.9501 0.585332
23441 1 0.366393 0.277781 0.609695
23443 1 0.324181 0.798268 0.58523
23444 1 0.352307 0.125363 0.585265
23445 1 0.338272 0.452558 0.609633
23446 1 0.380428 0.450099 0.585332
23447 1 0.366393 0.777782 0.609695
23442 1 0.394506 0.600505 0.609796
23448 1 0.394506 0.100505 0.609796
23449 1 0.408541 0.271356 0.585451
23450 1 0.436646 0.587754 0.585653
23451 1 0.422612 0.920121 0.609947
23455 1 0.408541 0.771357 0.585451
23456 1 0.436646 0.087752 0.585653
23457 1 0.422612 0.420121 0.609947
23452 1 0.464772 0.899219 0.585905
23453 1 0.45073 0.236691 0.61013
23454 1 0.478882 0.551526 0.610256
23458 1 0.464772 0.399222 0.585905
23459 1 0.45073 0.736692 0.61013
23460 1 0.478882 0.0515241 0.610256
23461 1 0.492969 0.208694 0.586008
23467 1 0.492969 0.708689 0.586008
23942 3 0.014462 0.646003 0.634042
23944 3 0.0426091 0.978127 0.634042
23945 3 0.0285356 0.308306 0.658413
23946 3 0.0566827 0.640162 0.658413
23948 3 0.014462 0.146004 0.634042
23950 3 0.0426091 0.478126 0.634042
23951 3 0.0285356 0.808306 0.658413
23952 3 0.0566827 0.140163 0.658413
24496 3 0.0426091 0.970506 0.682784
24502 3 0.0426091 0.470505 0.682784
23953 1 0.0711192 0.309648 0.63398
23954 1 0.0991563 0.641368 0.634005
23955 1 0.0850421 0.971756 0.658348
23956 1 0.127277 0.973026 0.633994
23957 1 0.113165 0.303084 0.658363
23959 1 0.0711191 0.809648 0.63398
23960 1 0.0991563 0.141368 0.634005
23961 1 0.0850421 0.471756 0.658348
23962 1 0.127277 0.473026 0.633994
23963 1 0.113165 0.803084 0.658363
24505 3 0.0707563 0.302092 0.682784
24506 1 0.0990958 0.633428 0.682694
24508 1 0.127217 0.964471 0.68271
24511 3 0.0707563 0.802093 0.682784
24512 1 0.0990958 0.133428 0.682694
24514 1 0.127217 0.464471 0.68271
23958 1 0.141315 0.634235 0.658348
23964 1 0.141315 0.134235 0.658348
23965 1 0.155403 0.304421 0.633981
23966 1 0.18354 0.635471 0.633966
23967 1 0.169458 0.965114 0.658334
23971 1 0.155403 0.804421 0.633981
23972 1 0.18354 0.135471 0.633966
23973 1 0.169458 0.465114 0.658334
24517 1 0.155372 0.295245 0.682696
24518 1 0.183519 0.62569 0.682682
24523 1 0.155372 0.795245 0.682696
24524 1 0.183519 0.12569 0.682682
23968 1 0.211678 0.966087 0.633953
23969 1 0.197603 0.295613 0.658318
23970 1 0.225746 0.625617 0.65831
23974 1 0.211678 0.466087 0.633953
23975 1 0.197603 0.795613 0.658318
23976 1 0.225746 0.125617 0.65831
23977 1 0.239817 0.296155 0.633947
23979 1 0.253887 0.954987 0.65831
23983 1 0.239817 0.796155 0.633947
23985 1 0.253887 0.454987 0.65831
24520 1 0.211666 0.9557 0.682671
24526 1 0.211666 0.4557 0.682671
24529 1 0.23981 0.285144 0.682669
24535 1 0.23981 0.785144 0.682669
23978 1 0.267955 0.62553 0.633949
23980 1 0.296089 0.954014 0.633963
23981 1 0.282023 0.283578 0.658322
23982 1 0.310153 0.611196 0.658351
23984 1 0.267955 0.12553 0.633949
23986 1 0.296089 0.454014 0.633963
23987 1 0.282023 0.783578 0.658322
23988 1 0.310153 0.111196 0.658351
24530 1 0.267949 0.613897 0.682679
24532 1 0.296081 0.941832 0.682703
24536 1 0.267949 0.113897 0.682679
24538 1 0.296081 0.441832 0.682703
23989 1 0.324218 0.281337 0.633995
23990 1 0.35234 0.607171 0.63405
23991 1 0.338276 0.937627 0.658399
23992 1 0.380454 0.931162 0.634135
23993 1 0.366393 0.262654 0.658472
23995 1 0.324218 0.781337 0.633995
23996 1 0.35234 0.107171 0.63405
23997 1 0.338276 0.437627 0.658399
23998 1 0.380454 0.431162 0.634135
23999 1 0.366393 0.762654 0.658472
24541 1 0.324207 0.268798 0.682745
24542 1 0.352326 0.59466 0.682807
24544 1 0.380442 0.919343 0.682888
24547 1 0.324207 0.768798 0.682745
24548 1 0.352326 0.0946604 0.682807
24550 1 0.380442 0.419343 0.682888
23994 1 0.394505 0.586126 0.658569
24000 1 0.394505 0.0861262 0.658569
24001 1 0.408563 0.253018 0.634255
24002 1 0.436678 0.572793 0.634396
24003 1 0.42262 0.908084 0.658684
24007 1 0.408563 0.753017 0.634255
24008 1 0.436678 0.0727947 0.634396
24009 1 0.42262 0.408084 0.658684
24553 1 0.408559 0.242871 0.682983
24554 1 0.436683 0.565443 0.683077
24559 1 0.408559 0.742872 0.682983
24560 1 0.436683 0.0654425 0.683077