ITEM: TIMESTEP
77
ITEM: NUMBER OF ATOMS
2342
ITEM: BOX BOUNDS ss pp ss
-4.1554853657999999e+01 4.1263454361000001e+01
-4.1208122699999999e-01 4.5329187729999996e+00
-4.0828690244000001e+01 3.9987505448000000e+01
ITEM: ATOMS id type xs ys zs
16806 3 0.310007 0.760736 0.0253797
16812 3 0.310007 0.260736 0.0253797
17354 3 0.267786 0.753062 0.0503597
17356 3 0.295933 0.090447 0.0503597
17360 3 0.267786 0.253062 0.0503597
17362 3 0.295933 0.590447 0.0503597
16815 3 0.338154 0.0982503 0.0253797
16817 3 0.366301 0.435923 0.0253797
16821 3 0.338154 0.59825 0.0253797
16823 3 0.366301 0.935924 0.0253797
17365 3 0.32408 0.428032 0.0503597
17366 3 0.352228 0.765808 0.0503597
17368 1 0.380502 0.103907 0.0504238
17371 3 0.32408 0.928033 0.0503597
17372 3 0.352228 0.265808 0.0503597
17374 1 0.380502 0.603907 0.0504238
16818 3 0.394448 0.773738 0.0253797
16824 3 0.394448 0.273739 0.0253797
16825 3 0.408522 0.443447 0.00039968
16826 3 0.436669 0.781212 0.00039968
16827 3 0.422595 0.111672 0.0253797
16831 3 0.408522 0.943448 0.00039968
16832 3 0.436669 0.281213 0.00039968
16833 3 0.422595 0.611672 0.0253797
17377 1 0.408666 0.443141 0.0506966
17378 1 0.436801 0.780751 0.050716
17383 1 0.408666 0.943141 0.0506966
17384 1 0.436801 0.280751 0.050716
16828 3 0.464816 0.119044 0.00039968
16829 3 0.450743 0.449697 0.0253797
16830 3 0.47889 0.787783 0.0253797
16834 3 0.464816 0.619043 0.00039968
16835 3 0.450743 0.949697 0.0253797
16836 3 0.47889 0.287784 0.0253797
17380 1 0.464865 0.118628 0.0505814
17386 1 0.464865 0.618628 0.0505814
16837 3 0.492963 0.456912 0.00039968
16843 3 0.492963 0.956913 0.00039968
17389 1 0.492977 0.456919 0.0505628
17395 1 0.492977 0.956919 0.0505628
17895 3 0.169271 0.0668228 0.1253
17901 3 0.169271 0.566822 0.1253
17346 3 0.225565 0.745331 0.0753397
17352 3 0.225565 0.245331 0.0753397
17355 3 0.253713 0.0825046 0.0753397
17361 3 0.253713 0.582504 0.0753397
17896 3 0.211492 0.0745787 0.10032
17897 3 0.197418 0.403633 0.1253
17898 1 0.225523 0.739894 0.125391
17902 3 0.211492 0.574578 0.10032
17903 3 0.197418 0.903634 0.1253
17904 1 0.225523 0.239894 0.125391
17905 3 0.239639 0.41172 0.10032
17907 1 0.253849 0.0786434 0.125597
17911 3 0.239639 0.91172 0.10032
17913 1 0.253849 0.578643 0.125597
17357 3 0.28186 0.41991 0.0753397
17358 1 0.310092 0.758369 0.0756485
17363 3 0.28186 0.91991 0.0753397
17364 1 0.310092 0.258369 0.0756485
17906 1 0.267974 0.74989 0.100562
17908 1 0.296117 0.0877013 0.100682
17909 1 0.281972 0.416687 0.125562
17910 1 0.310134 0.754947 0.125566
17912 1 0.267974 0.24989 0.100562
17914 1 0.296117 0.587701 0.100682
17915 1 0.281972 0.916687 0.125562
17916 1 0.310134 0.254947 0.125566
17367 1 0.338291 0.0960573 0.0756784
17369 1 0.366417 0.43407 0.0755018
17373 1 0.338291 0.596057 0.0756784
17375 1 0.366417 0.93407 0.0755018
17917 1 0.324217 0.425671 0.100592
17918 1 0.35236 0.764006 0.100519
17919 1 0.338275 0.0932539 0.125522
17920 1 0.380469 0.102307 0.100504
17921 1 0.3664 0.431793 0.125495
17923 1 0.324217 0.925671 0.100592
17924 1 0.35236 0.264006 0.100519
17925 1 0.338275 0.593254 0.125522
17926 1 0.380469 0.602307 0.100504
17927 1 0.3664 0.931793 0.125495
17370 1 0.394572 0.772762 0.0756025
17376 1 0.394572 0.272762 0.0756025
17379 1 0.422711 0.111334 0.0756403
17385 1 0.422711 0.611334 0.0756403
17922 1 0.394523 0.770534 0.125506
17928 1 0.394523 0.270534 0.125506
17929 1 0.408609 0.441101 0.100569
17930 1 0.436754 0.779894 0.100583
17931 1 0.422662 0.109598 0.125534
17935 1 0.408609 0.941101 0.100569
17936 1 0.436754 0.279894 0.100583
17937 1 0.422662 0.609598 0.125534
17381 1 0.450833 0.449617 0.0755883
17382 1 0.478931 0.787852 0.0755305
17387 1 0.450833 0.949617 0.0755883
17388 1 0.478931 0.287852 0.0755305
17932 1 0.464875 0.11857 0.100552
17933 1 0.450797 0.448713 0.125537
17934 1 0.47892 0.787774 0.125524
17938 1 0.464875 0.61857 0.100552
17939 1 0.450797 0.948713 0.125537
17940 1 0.47892 0.287774 0.125524
17941 1 0.492982 0.457211 0.100526
17947 1 0.492982 0.957211 0.100526
18437 3 0.112977 0.388374 0.17526
18443 3 0.112977 0.888375 0.17526
18438 3 0.141124 0.724664 0.17526
18444 3 0.141124 0.224664 0.17526
18445 3 0.155198 0.395808 0.15028
18446 3 0.183345 0.732508 0.15028
18447 1 0.169228 0.0603842 0.175336
18451 3 0.155198 0.895809 0.15028
18452 3 0.183345 0.232509 0.15028
18453 1 0.169228 0.560384 0.175336
18448 1 0.211662 0.0703715 0.150564
18449 1 0.197543 0.39858 0.175557
18450 1 0.225667 0.736206 0.175492
18454 1 0.211662 0.570371 0.150564
18455 1 0.197543 0.89858 0.175557
18456 1 0.225667 0.236206 0.175492
18457 1 0.239744 0.40736 0.150514
18459 1 0.253795 0.0738039 0.175447
18463 1 0.239744 0.90736 0.150514
18465 1 0.253795 0.573804 0.175447
18458 1 0.26787 0.745365 0.150497
18460 1 0.296027 0.0835868 0.1505
18461 1 0.281933 0.411913 0.175435
18462 1 0.310078 0.750383 0.175432
18464 1 0.26787 0.245365 0.150497
18466 1 0.296027 0.583587 0.1505
18467 1 0.281933 0.911913 0.175435
18468 1 0.310078 0.250383 0.175432
18469 1 0.324177 0.422092 0.150487
18470 1 0.352316 0.760748 0.150468
18471 1 0.338225 0.0891766 0.17543
18472 1 0.380447 0.0996491 0.15047
18473 1 0.366363 0.42826 0.175433
18475 1 0.324177 0.922092 0.150487
18476 1 0.352316 0.260748 0.150468
18477 1 0.338225 0.589177 0.17543
18478 1 0.380447 0.599649 0.15047
18479 1 0.366363 0.92826 0.175433
18474 1 0.394499 0.767661 0.175446
18480 1 0.394499 0.267661 0.175446
18481 1 0.40858 0.438853 0.150488
18482 1 0.436716 0.7783 0.150506
18483 1 0.422636 0.107378 0.175466
18487 1 0.40858 0.938853 0.150488
18488 1 0.436716 0.2783 0.150506
18489 1 0.422636 0.607378 0.175466
18484 1 0.464848 0.117827 0.15051
18485 1 0.450772 0.447319 0.17548
18486 1 0.478904 0.787352 0.175486
18490 1 0.464848 0.617827 0.15051
18491 1 0.450772 0.947319 0.17548
18492 1 0.478904 0.287352 0.175486
18493 1 0.492972 0.457346 0.150506
18499 1 0.492972 0.957346 0.150506
18986 3 0.0989034 0.717297 0.20024
18987 3 0.0848298 0.0461631 0.22522
18988 3 0.127051 0.0534123 0.20024
18989 3 0.112977 0.38208 0.22522
18992 3 0.0989034 0.217297 0.20024
18993 3 0.0848298 0.546163 0.22522
18994 3 0.127051 0.553412 0.20024
18995 3 0.112977 0.88208 0.22522
18990 1 0.141336 0.718732 0.225486
18996 1 0.141336 0.218732 0.225486
18997 1 0.155388 0.390611 0.200497
18998 1 0.183457 0.726977 0.200452
18999 1 0.169412 0.0555545 0.225421
19003 1 0.155388 0.890611 0.200497
19004 1 0.183457 0.226977 0.200452
19005 1 0.169412 0.555554 0.225421
19000 1 0.211575 0.0644171 0.200428
19001 1 0.197513 0.392464 0.225376
19002 1 0.225633 0.729904 0.225352
19006 1 0.211575 0.564417 0.200428
19007 1 0.197513 0.892464 0.225376
19008 1 0.225633 0.229904 0.225352
19009 1 0.239716 0.40204 0.200407
19011 1 0.253762 0.0676774 0.225332
19015 1 0.239716 0.90204 0.200407
19017 1 0.253762 0.567677 0.225332
19010 1 0.267847 0.739941 0.200381
19012 1 0.295986 0.0782932 0.200375
19013 1 0.281896 0.405872 0.22532
19014 1 0.310034 0.744574 0.225319
19016 1 0.267847 0.239941 0.200381
19018 1 0.295986 0.578293 0.200375
19019 1 0.281896 0.905872 0.22532
19020 1 0.310034 0.244573 0.225319
19021 1 0.32413 0.417094 0.200377
19022 1 0.352272 0.756302 0.200384
19023 1 0.338176 0.0837899 0.225327
19024 1 0.380413 0.0959003 0.200399
19025 1 0.36632 0.42352 0.225343
19027 1 0.32413 0.917094 0.200377
19028 1 0.352272 0.256303 0.200384
19029 1 0.338176 0.58379 0.225327
19030 1 0.380413 0.5959 0.200399
19031 1 0.36632 0.92352 0.225343
19026 1 0.394464 0.763749 0.225367
19032 1 0.394464 0.263749 0.225367
19033 1 0.408553 0.435888 0.20042
19034 1 0.436693 0.776213 0.200441
19035 1 0.42261 0.104437 0.225393
19039 1 0.408553 0.935888 0.20042
19040 1 0.436693 0.276213 0.200441
19041 1 0.42261 0.604437 0.225393
19036 1 0.464832 0.116756 0.200455
19037 1 0.450755 0.445484 0.225415
19038 1 0.478898 0.786751 0.225428
19042 1 0.464832 0.616756 0.200455
19043 1 0.450755 0.945483 0.225415
19044 1 0.478898 0.286751 0.225428
19045 1 0.492968 0.457389 0.20046
19051 1 0.492968 0.95739 0.20046
19530 3 0.0566827 0.703838 0.27518
19536 3 0.0566827 0.203838 0.27518
20080 3 0.0426091 0.032704 0.30016
20086 3 0.0426091 0.532704 0.30016
19537 3 0.0707563 0.375 0.2502
19538 3 0.0989034 0.710699 0.2502
19539 3 0.0848298 0.0393017 0.27518
19540 1 0.127192 0.0469088 0.250328
19541 1 0.113124 0.375246 0.275266
19543 3 0.0707563 0.875 0.2502
19544 3 0.0989034 0.2107 0.2502
19545 3 0.0848298 0.539301 0.27518
19546 1 0.127192 0.546909 0.250328
19547 1 0.113124 0.875246 0.275266
20089 3 0.0707563 0.36792 0.30016
20090 1 0.0990814 0.703582 0.300219
20092 1 0.127158 0.0394923 0.300193
20095 3 0.0707563 0.86792 0.30016
20096 1 0.0990814 0.203582 0.300219
20098 1 0.127158 0.539492 0.300193
19542 1 0.141209 0.71153 0.275256
19548 1 0.141209 0.21153 0.275256
19549 1 0.155305 0.383675 0.25035
19550 1 0.183437 0.720486 0.250336
19551 1 0.169345 0.0482372 0.27527
19555 1 0.155305 0.883675 0.25035
19556 1 0.183437 0.220487 0.250336
19557 1 0.169345 0.548237 0.27527
20101 1 0.155274 0.375805 0.300202
20102 1 0.183389 0.712486 0.3002
20107 1 0.155274 0.875805 0.300202
20108 1 0.183389 0.212486 0.3002
19552 1 0.211552 0.0575999 0.250303
19553 1 0.197468 0.385149 0.275254
19554 1 0.22559 0.722399 0.275234
19558 1 0.211552 0.5576 0.250303
19559 1 0.197468 0.885149 0.275254
19560 1 0.22559 0.222399 0.275234
19561 1 0.239676 0.39513 0.250282
19563 1 0.253713 0.0601237 0.275216
19567 1 0.239676 0.895131 0.250282
19569 1 0.253713 0.560124 0.275216
20104 1 0.211507 0.0494851 0.300188
20110 1 0.211507 0.549485 0.300188
20113 1 0.239623 0.386899 0.30017
20119 1 0.239623 0.886899 0.30017
19562 1 0.267804 0.733135 0.250267
19564 1 0.295938 0.0716623 0.250261
19565 1 0.28184 0.398394 0.275205
19566 1 0.309973 0.73729 0.275203
19568 1 0.267804 0.233135 0.250267
19570 1 0.295938 0.571662 0.250261
19571 1 0.28184 0.898393 0.275205
19572 1 0.309973 0.23729 0.275203
20114 1 0.267743 0.724838 0.300154
20116 1 0.295869 0.0634105 0.300144
20120 1 0.267743 0.224838 0.300154
20122 1 0.295869 0.56341 0.300144
19573 1 0.324076 0.410772 0.250265
19574 1 0.35222 0.750509 0.25028
19575 1 0.338114 0.0768913 0.275212
19576 1 0.380368 0.0908842 0.250304
19577 1 0.366262 0.417266 0.275233
19579 1 0.324076 0.910772 0.250265
19580 1 0.35222 0.250509 0.25028
19581 1 0.338114 0.576891 0.275212
19582 1 0.380368 0.590884 0.250304
19583 1 0.366262 0.917266 0.275233
20125 1 0.324003 0.402733 0.300145
20126 1 0.352148 0.742926 0.300157
20128 1 0.380302 0.084091 0.300184
20131 1 0.324003 0.902733 0.300145
20132 1 0.352148 0.242926 0.300157
20134 1 0.380302 0.584091 0.300184
20144 1 0.436632 0.269404 0.300264
20143 1 0.408464 0.926272 0.300222
19578 1 0.394416 0.758441 0.275264
19584 1 0.394416 0.258441 0.275264
19585 1 0.408518 0.431877 0.250334
19586 1 0.43667 0.773409 0.250364
19587 1 0.422574 0.100383 0.2753
19591 1 0.408518 0.931877 0.250334
19592 1 0.43667 0.273409 0.250364
19593 1 0.422574 0.600383 0.2753
20137 1 0.408464 0.426272 0.300222
20138 1 0.436632 0.769404 0.300264
20146 1 0.464802 0.613279 0.300296
19588 1 0.46482 0.115332 0.250386
19589 1 0.450733 0.442957 0.275332
19590 1 0.478892 0.785942 0.275352
19594 1 0.46482 0.615333 0.250386
19595 1 0.450733 0.942957 0.275332
19596 1 0.478892 0.285942 0.275352
20140 1 0.464802 0.113279 0.300296
19597 1 0.49297 0.457455 0.250394
19603 1 0.49297 0.957455 0.250394
20149 1 0.492973 0.457569 0.300308
20155 1 0.492973 0.957569 0.300308
20640 1 0.056722 0.189941 0.375022
20639 3 0.0285356 0.854192 0.3751
20638 3 0.0426091 0.525336 0.35012
20634 1 0.056722 0.689941 0.375022
20633 3 0.0285356 0.354191 0.3751
20632 3 0.0426091 0.0253369 0.35012
20081 3 0.0285356 0.361625 0.32514
20082 3 0.0566827 0.696588 0.32514
20087 3 0.0285356 0.861626 0.32514
20088 3 0.0566827 0.196589 0.32514
20651 1 0.113148 0.85899 0.375098
20650 1 0.127206 0.531058 0.350126
20649 1 0.0850587 0.523883 0.37509
20648 1 0.0991387 0.195403 0.350139
20647 1 0.0710649 0.859834 0.350158
20645 1 0.113148 0.358991 0.375098
20644 1 0.127206 0.0310583 0.350126
20643 1 0.0850587 0.0238833 0.37509
20642 1 0.0991387 0.695403 0.350139
20641 1 0.0710649 0.359834 0.350158
20091 1 0.0851591 0.0317514 0.325193
20093 1 0.113155 0.367328 0.325155
20097 1 0.0851591 0.531751 0.325193
20099 1 0.113155 0.867328 0.325155
20661 1 0.169319 0.530362 0.375081
20660 1 0.183372 0.203354 0.350108
20659 1 0.15528 0.867028 0.350117
20655 1 0.169319 0.0303621 0.375081
20654 1 0.183372 0.703354 0.350108
20653 1 0.15528 0.367028 0.350117
20652 1 0.141231 0.194488 0.375091
20646 1 0.141231 0.694488 0.375091
20094 1 0.141236 0.703356 0.325154
20100 1 0.141236 0.203356 0.325154
20103 1 0.169328 0.0397341 0.325152
20109 1 0.169328 0.539734 0.325152
20673 1 0.253598 0.540324 0.375021
20671 1 0.239571 0.877155 0.350073
20667 1 0.253598 0.0403242 0.375021
20665 1 0.239571 0.377155 0.350073
20664 1 0.225502 0.203206 0.375045
20663 1 0.197409 0.86658 0.375066
20662 1 0.211469 0.540034 0.350093
20658 1 0.225502 0.703206 0.375045
20657 1 0.197409 0.36658 0.375066
20656 1 0.211469 0.0400338 0.350093
20105 1 0.197433 0.376433 0.325144
20106 1 0.225541 0.71351 0.325128
20111 1 0.197433 0.876433 0.325144
20112 1 0.225541 0.21351 0.325128
20115 1 0.253652 0.051065 0.325109
20121 1 0.253652 0.551065 0.325109
20676 1 0.309806 0.216588 0.374971
20675 1 0.281698 0.878055 0.374995
20674 1 0.295789 0.553184 0.350032
20672 1 0.267676 0.214822 0.350051
20670 1 0.309806 0.716588 0.374971
20669 1 0.281698 0.378055 0.374995
20668 1 0.295789 0.0531836 0.350032
20666 1 0.267676 0.714822 0.350051
20117 1 0.281768 0.389223 0.325092
20118 1 0.309893 0.728121 0.325083
20123 1 0.281768 0.889223 0.325092
20124 1 0.309893 0.228121 0.325083
20687 1 0.366061 0.897135 0.374954
20686 1 0.380202 0.574531 0.35004
20685 1 0.337925 0.556169 0.374955
20684 1 0.352048 0.232783 0.350021
20683 1 0.323911 0.892426 0.35002
20681 1 0.366061 0.397135 0.374954
20680 1 0.380202 0.0745318 0.35004
20679 1 0.337925 0.0561696 0.374956
20678 1 0.352048 0.732782 0.350021
20677 1 0.323911 0.392426 0.35002
20127 1 0.338029 0.0679291 0.325084
20129 1 0.366177 0.408829 0.3251
20133 1 0.338029 0.567929 0.325084
20135 1 0.366177 0.908828 0.3251
20697 1 0.42241 0.585026 0.375015
20696 1 0.436566 0.263139 0.35013
20695 1 0.408375 0.917941 0.350078
20691 1 0.42241 0.0850253 0.375015
20690 1 0.436566 0.763139 0.35013
20689 1 0.408375 0.417941 0.350078
20688 1 0.394221 0.23993 0.374973
20682 1 0.394221 0.73993 0.374973
20145 1 0.422513 0.594446 0.325178
20130 1 0.394339 0.750976 0.325133
20136 1 0.394339 0.250977 0.325133
20139 1 0.422513 0.0944461 0.325178
20700 1 0.478857 0.282476 0.375114
20699 1 0.450625 0.932691 0.375073
20698 1 0.464768 0.609938 0.350176
20694 1 0.478857 0.782475 0.375114
20693 1 0.450625 0.432691 0.375073
20692 1 0.464768 0.109938 0.350176
20148 1 0.478881 0.284692 0.325252
20147 1 0.450695 0.939128 0.325224
20141 1 0.450695 0.439128 0.325224
20142 1 0.478881 0.784692 0.325252
20707 1 0.492974 0.957697 0.350193
20701 1 0.492974 0.457697 0.350193
21192 1 0.0570017 0.18015 0.425067
21191 3 0.0285356 0.846367 0.42506
21190 3 0.0426091 0.517492 0.40008
21188 3 0.014462 0.183178 0.40008
21186 1 0.0570017 0.68015 0.425067
21185 3 0.0285356 0.346367 0.42506
21184 3 0.0426091 0.0174924 0.40008
21182 3 0.014462 0.683178 0.40008
21203 1 0.113142 0.84972 0.425036
21202 1 0.127183 0.522045 0.400064
21201 1 0.0850656 0.514908 0.425029
21200 1 0.0990939 0.186884 0.400053
21199 1 0.0710642 0.852111 0.400039
21197 1 0.113142 0.34972 0.425036
21196 1 0.127183 0.0220445 0.400064
21195 1 0.0850656 0.0149085 0.425029
21194 1 0.0990939 0.686884 0.400053
21193 1 0.0710642 0.352111 0.400039
21213 1 0.169314 0.520021 0.425027
21212 1 0.183358 0.193227 0.400045
21211 1 0.15527 0.857495 0.400058
21207 1 0.169314 0.020021 0.425027
21206 1 0.183358 0.693227 0.400045
21205 1 0.15527 0.357494 0.400058
21204 1 0.141224 0.184757 0.425036
21198 1 0.141224 0.684757 0.425036
21225 1 0.253577 0.527738 0.424958
21223 1 0.239536 0.865826 0.4
21219 1 0.253577 0.0277379 0.424958
21217 1 0.239536 0.365826 0.4
21216 1 0.22549 0.191435 0.424987
21215 1 0.197402 0.855556 0.42501
21214 1 0.211447 0.529312 0.400026
21210 1 0.22549 0.691435 0.424987
21209 1 0.197402 0.355557 0.42501
21208 1 0.211447 0.0293121 0.400026
21228 1 0.309748 0.202178 0.424892
21227 1 0.281662 0.864587 0.424926
21226 1 0.295721 0.540584 0.399941
21224 1 0.267627 0.202863 0.399971
21222 1 0.309748 0.702179 0.424892
21221 1 0.281662 0.364587 0.424926
21220 1 0.295721 0.0405849 0.399941
21218 1 0.267627 0.702863 0.399971
21239 1 0.365937 0.880923 0.424827
21238 1 0.380065 0.560751 0.399882
21237 1 0.337837 0.540808 0.424857
21236 1 0.351933 0.219116 0.399891
21235 1 0.323821 0.879223 0.399912
21233 1 0.365937 0.380923 0.424827
21232 1 0.380065 0.0607504 0.399882
21231 1 0.337837 0.0408072 0.424857
21230 1 0.351933 0.719117 0.399891
21229 1 0.323821 0.379223 0.399912
21249 1 0.422225 0.568964 0.424801
21248 1 0.436442 0.252348 0.39994
21247 1 0.408231 0.904838 0.399896
21243 1 0.422225 0.0689639 0.424801
21242 1 0.436442 0.752349 0.39994
21241 1 0.408231 0.404839 0.399896
21240 1 0.394059 0.223225 0.424805
21234 1 0.394059 0.723224 0.424805
21252 1 0.478801 0.277817 0.424911
21251 1 0.450471 0.920228 0.424842
21250 1 0.464699 0.603781 0.400002
21246 1 0.478801 0.777815 0.424911
21245 1 0.450471 0.420225 0.424842
21244 1 0.464699 0.103783 0.400002
21259 1 0.492976 0.957881 0.400029
21253 1 0.492976 0.457883 0.400029
21744 1 0.056995 0.172002 0.474991
21743 3 0.0285356 0.83828 0.47502
21742 1 0.0426597 0.510448 0.449955
21741 3 0.00038843 0.50467 0.47502
21740 3 0.014462 0.175423 0.45004
21738 1 0.056995 0.672002 0.474991
21737 3 0.0285356 0.33828 0.47502
21736 1 0.0426597 0.0104482 0.449955
21735 3 0.00038843 0.00467018 0.47502
21734 3 0.014462 0.675422 0.45004
22286 3 0.014462 0.667496 0.5
22292 3 0.014462 0.167497 0.5
21755 1 0.113142 0.839994 0.474989
21754 1 0.12718 0.512256 0.450013
21753 1 0.0850419 0.505886 0.474981
21752 1 0.0990871 0.177726 0.450013
21751 1 0.0709966 0.843541 0.450013
21749 1 0.113142 0.339994 0.474989
21748 1 0.12718 0.0122557 0.450013
21747 1 0.0850419 0.00588576 0.474981
21746 1 0.0990871 0.677726 0.450013
21745 1 0.0709966 0.343541 0.450013
22297 1 0.0710231 0.33426 0.499966
22298 1 0.0991191 0.667989 0.499967
22300 1 0.127208 0.0018472 0.49997
22303 1 0.0710231 0.83426 0.499966
22304 1 0.0991191 0.167989 0.499967
22306 1 0.127208 0.501847 0.49997
21765 1 0.169336 0.508743 0.474981
21764 1 0.183366 0.182008 0.449996
21763 1 0.155274 0.847026 0.450008
21759 1 0.169336 0.00874332 0.474981
21758 1 0.183366 0.682008 0.449996
21757 1 0.155274 0.347026 0.450008
21756 1 0.141239 0.174294 0.474988
21750 1 0.141239 0.674294 0.474988
22309 1 0.155308 0.335823 0.499964
22310 1 0.183408 0.669886 0.499952
22315 1 0.155308 0.835823 0.499964
22316 1 0.183408 0.169886 0.499952
21777 1 0.253613 0.513253 0.474918
21775 1 0.239544 0.852802 0.449951
21771 1 0.253613 0.0132527 0.474918
21769 1 0.239544 0.352801 0.449951
21768 1 0.225524 0.178191 0.474944
21767 1 0.197431 0.843372 0.474965
21766 1 0.211457 0.51725 0.449976
21762 1 0.225524 0.678191 0.474944
21761 1 0.197431 0.343372 0.474965
21760 1 0.211457 0.01725 0.449976
22312 1 0.211509 0.00402954 0.499934
22318 1 0.211509 0.50403 0.499934
22321 1 0.239607 0.338261 0.499913
22327 1 0.239607 0.838261 0.499913
21780 1 0.309775 0.18451 0.474857
21779 1 0.281697 0.848643 0.474889
21778 1 0.295709 0.525246 0.449887
21776 1 0.267628 0.188755 0.449921
21774 1 0.309775 0.684509 0.474857
21773 1 0.281697 0.348644 0.474889
21772 1 0.295709 0.0252454 0.449887
21770 1 0.267628 0.688755 0.449921
22322 1 0.267702 0.672612 0.49989
22324 1 0.29579 0.00713622 0.499865
22328 1 0.267702 0.172612 0.49989
22330 1 0.29579 0.507135 0.499864
21791 1 0.365904 0.858839 0.474778
21790 1 0.379941 0.541028 0.449768
21789 1 0.337844 0.5211 0.474821
21788 1 0.351861 0.20091 0.44981
21787 1 0.323785 0.86251 0.449851
21785 1 0.365904 0.358837 0.474778
21784 1 0.379941 0.04103 0.449768
21783 1 0.337844 0.0211005 0.474821
21782 1 0.351861 0.700909 0.44981
21781 1 0.323785 0.362511 0.449851
22333 1 0.323871 0.341948 0.499838
22334 1 0.351938 0.677245 0.499809
22336 1 0.379984 0.0133416 0.499775
22339 1 0.323871 0.841948 0.499838
22340 1 0.351938 0.177243 0.499809
22342 1 0.379984 0.513343 0.499775
21801 1 0.422 0.541256 0.47465
21800 1 0.43619 0.231732 0.449676
21799 1 0.40804 0.88385 0.449724
21795 1 0.422 0.0412515 0.474649
21794 1 0.436189 0.731735 0.449676
21793 1 0.40804 0.38385 0.449724
21792 1 0.393954 0.19844 0.474725
21786 1 0.393954 0.698441 0.474725
22345 1 0.40799 0.350796 0.499729
22346 1 0.435954 0.690883 0.49966
22351 1 0.40799 0.850792 0.499729
22352 1 0.435954 0.190884 0.49966
22354 1 0.464006 0.541428 0.4995
22348 1 0.464006 0.0414316 0.4995
21804 1 0.478601 0.262493 0.4746
21803 1 0.450115 0.891846 0.474526
21802 1 0.464503 0.589493 0.449714
21798 1 0.478601 0.762489 0.4746
21797 1 0.450115 0.391845 0.474526
21796 1 0.464503 0.0894954 0.449714
21811 1 0.492974 0.958059 0.449802
21805 1 0.492974 0.458064 0.449802
22363 1 0.492972 0.958252 0.49955
22357 1 0.492972 0.458253 0.49955
22287 3 0.00038843 0.996939 0.52498
22289 3 0.0285356 0.33009 0.52498
22290 1 0.0570738 0.662929 0.524961
22293 3 0.00038843 0.496939 0.52498
22295 3 0.0285356 0.83009 0.52498
22296 1 0.0570738 0.162929 0.524961
22838 3 0.014462 0.659554 0.54996
22840 1 0.0429079 0.99196 0.549881
22844 3 0.014462 0.159554 0.54996
22846 1 0.0429079 0.49196 0.549881
22294 1 0.0429023 0.50049 0.500045
22288 1 0.0429023 0.000489566 0.500045
22299 1 0.0851057 0.996271 0.524956
22301 1 0.113182 0.329747 0.524957
22305 1 0.0851057 0.496271 0.524956
22307 1 0.113182 0.829747 0.524957
22849 1 0.071045 0.325179 0.549943
22850 1 0.0991375 0.658179 0.549952
22852 1 0.127234 0.991287 0.549939
22855 1 0.071045 0.825179 0.549943
22856 1 0.0991375 0.158179 0.549952
22858 1 0.127234 0.491287 0.549939
22302 1 0.141278 0.663311 0.52495
22308 1 0.141278 0.163311 0.52495
22311 1 0.169383 0.996869 0.524937
22317 1 0.169383 0.496869 0.524937
22861 1 0.155349 0.324402 0.549921
22862 1 0.183466 0.657427 0.549904
22867 1 0.155349 0.824402 0.549921
22868 1 0.183466 0.157427 0.549904
22313 1 0.197491 0.330418 0.524921
22314 1 0.2256 0.663917 0.524902
22319 1 0.197491 0.830418 0.524921
22320 1 0.2256 0.163917 0.524902
22323 1 0.253707 0.997361 0.524884
22329 1 0.253707 0.497361 0.524884
22864 1 0.211584 0.990313 0.549887
22870 1 0.211584 0.490312 0.549887
22873 1 0.239703 0.323006 0.549871
22879 1 0.239703 0.823007 0.549871
22325 1 0.281811 0.330714 0.524865
22326 1 0.309909 0.663967 0.524847
22331 1 0.281811 0.830714 0.524865
22332 1 0.309909 0.163967 0.524847
22874 1 0.26782 0.655439 0.549856
22876 1 0.295935 0.98749 0.549844
22880 1 0.26782 0.155438 0.549856
22882 1 0.295935 0.487491 0.549844
22335 1 0.338001 0.997096 0.524832
22337 1 0.366082 0.329992 0.524822
22341 1 0.338001 0.497097 0.524832
22343 1 0.366082 0.829991 0.524822
22885 1 0.324048 0.319019 0.549838
22886 1 0.352158 0.649689 0.549842
22888 1 0.380264 0.978835 0.549865
22891 1 0.324048 0.819018 0.549838
22892 1 0.352158 0.149691 0.549842
22894 1 0.380264 0.478832 0.549865
22338 1 0.394143 0.662343 0.524819
22344 1 0.394143 0.162346 0.524819
22347 1 0.42218 0.993301 0.524834
22353 1 0.42218 0.493299 0.524834
22897 1 0.408367 0.305048 0.549924
22898 1 0.436491 0.625041 0.550055
22903 1 0.408367 0.805051 0.549924
22904 1 0.436491 0.125037 0.550055
22915 1 0.492968 0.708688 0.550911
22909 1 0.492968 0.208686 0.550911
22349 1 0.450262 0.320498 0.524901
22350 1 0.478534 0.625062 0.525177
22355 1 0.450262 0.820502 0.524901
22356 1 0.478534 0.125061 0.525177
22900 1 0.464632 0.929589 0.550408
22906 1 0.464632 0.429591 0.550408
22839 3 0.00038843 0.989265 0.57494
22841 3 0.0285356 0.321968 0.57494
22842 1 0.0570325 0.654415 0.574891
22845 3 0.00038843 0.489265 0.57494
22847 3 0.0285356 0.821968 0.57494
22848 1 0.0570325 0.154415 0.574891
23390 3 0.014462 0.65175 0.59992
23392 3 0.0426091 0.984193 0.59992
23393 3 0.0285356 0.314077 0.6249
23394 1 0.0567973 0.646381 0.62498
23396 3 0.014462 0.151751 0.59992
23398 3 0.0426091 0.484192 0.59992
23399 3 0.0285356 0.814077 0.6249
23400 1 0.0567973 0.146381 0.62498
22851 1 0.0850558 0.987011 0.574956
22853 1 0.113177 0.319787 0.574927
22857 1 0.0850558 0.487011 0.574956
22859 1 0.113177 0.819787 0.574927
23401 1 0.0709468 0.316544 0.599941
23402 1 0.0990972 0.648833 0.599909
23403 1 0.0851082 0.97798 0.624877
23404 1 0.12725 0.981129 0.59988
23405 1 0.113223 0.310106 0.62485
23407 1 0.0709468 0.816544 0.599941
23408 1 0.0990972 0.148833 0.599909
23409 1 0.0851082 0.47798 0.624877
23410 1 0.12725 0.481128 0.59988
23411 1 0.113223 0.810106 0.62485
22854 1 0.141302 0.652504 0.574904
22860 1 0.141302 0.152504 0.574904
22863 1 0.16943 0.985082 0.574885
22869 1 0.16943 0.485081 0.574885
23406 1 0.141345 0.642072 0.624838
23412 1 0.141345 0.142072 0.624838
23413 1 0.155387 0.313334 0.599862
23414 1 0.183519 0.645338 0.599845
23415 1 0.169474 0.973833 0.624823
23419 1 0.155387 0.813334 0.599862
23420 1 0.183519 0.145338 0.599845
23421 1 0.169474 0.473833 0.624823
22865 1 0.197557 0.317468 0.574868
22866 1 0.225684 0.649582 0.574852
22871 1 0.197557 0.817468 0.574868
22872 1 0.225684 0.149582 0.574852
22875 1 0.253812 0.981331 0.57484
22881 1 0.253812 0.481331 0.57484
23416 1 0.211651 0.977034 0.59983
23417 1 0.197606 0.30526 0.624807
23418 1 0.225741 0.636246 0.624794
23422 1 0.211651 0.477034 0.59983
23423 1 0.197606 0.80526 0.624807
23424 1 0.225741 0.136246 0.624794
23425 1 0.239784 0.308314 0.599818
23427 1 0.253877 0.966654 0.624788
23431 1 0.239784 0.808314 0.599818
23433 1 0.253877 0.466654 0.624788
22877 1 0.281938 0.31256 0.574831
22878 1 0.310063 0.643062 0.57483
22883 1 0.281938 0.812559 0.574831
22884 1 0.310063 0.143062 0.57483
23426 1 0.267917 0.639023 0.599812
23428 1 0.296049 0.968943 0.599813
23429 1 0.282012 0.296296 0.62479
23430 1 0.310144 0.624914 0.624805
23432 1 0.267917 0.139023 0.599812
23434 1 0.296049 0.468942 0.599813
23435 1 0.282012 0.796296 0.62479
23436 1 0.310144 0.124913 0.624805
22887 1 0.338187 0.97248 0.574841
22889 1 0.366308 0.300172 0.574873
22893 1 0.338187 0.472479 0.574841
22895 1 0.366308 0.800174 0.574873
23437 1 0.324179 0.297764 0.599828
23438 1 0.352305 0.624989 0.599862
23439 1 0.338272 0.952153 0.62484
23440 1 0.380425 0.949841 0.599931
23441 1 0.366392 0.277504 0.624902
23443 1 0.324179 0.797765 0.599828
23444 1 0.352305 0.124988 0.599862
23445 1 0.338272 0.452153 0.62484
23446 1 0.380425 0.449843 0.599931
23447 1 0.366392 0.777502 0.624902
22890 1 0.394425 0.625019 0.574943
22896 1 0.394425 0.125016 0.574943
22899 1 0.42254 0.945008 0.57508
22905 1 0.42254 0.445012 0.57508
23442 1 0.394504 0.600339 0.625005
23448 1 0.394504 0.100341 0.625005
23449 1 0.408538 0.27121 0.600051
23450 1 0.436643 0.587723 0.600256
23451 1 0.42261 0.920074 0.625159
23455 1 0.408538 0.771208 0.600051
23456 1 0.436643 0.0877241 0.600257
23457 1 0.42261 0.420071 0.625159
23467 1 0.492964 0.708857 0.600619
23461 1 0.492964 0.208859 0.600619
22901 1 0.450648 0.25678 0.575366
22902 1 0.478807 0.559218 0.575728
22907 1 0.450648 0.756776 0.575366
22908 1 0.478808 0.0592242 0.575728
23452 1 0.464768 0.899301 0.600513
23453 1 0.450727 0.236746 0.625346
23454 1 0.478878 0.551673 0.625473
23458 1 0.464768 0.399301 0.600513
23459 1 0.450727 0.736751 0.625346
23460 1 0.478878 0.0516679 0.625473
23944 3 0.0426091 0.976262 0.64988
23945 3 0.0285356 0.306552 0.67486
23946 3 0.0566827 0.638328 0.67486
23950 3 0.0426091 0.476262 0.64988
23951 3 0.0285356 0.806553 0.67486
23952 3 0.0566827 0.138329 0.67486
23953 1 0.07111 0.307235 0.649838
23954 1 0.0992104 0.639446 0.649831
23955 1 0.0851955 0.969627 0.674799
23956 1 0.127309 0.971307 0.649821
23957 1 0.11323 0.301144 0.674814
23959 1 0.07111 0.807235 0.649838
23960 1 0.0992104 0.139446 0.649831
23961 1 0.0851955 0.469627 0.674799
23962 1 0.127309 0.471307 0.649821
23963 1 0.11323 0.801144 0.674814
23958 1 0.141347 0.632567 0.674792
23964 1 0.141347 0.132567 0.674792
23965 1 0.155418 0.302892 0.649805
23966 1 0.183548 0.634165 0.649786
23967 1 0.169473 0.963703 0.674769
23971 1 0.155418 0.802892 0.649805
23972 1 0.183548 0.134165 0.649786
23973 1 0.169473 0.463703 0.674769
23968 1 0.211682 0.96499 0.64977
23969 1 0.197611 0.294435 0.674747
23970 1 0.225752 0.624643 0.674734
23974 1 0.211682 0.46499 0.64977
23975 1 0.197611 0.794435 0.674747
23976 1 0.225752 0.124643 0.674734
23977 1 0.23982 0.295251 0.649761
23979 1 0.253891 0.954192 0.674732
23983 1 0.23982 0.795251 0.649761
23985 1 0.253891 0.454192 0.674732
23978 1 0.267957 0.624797 0.649762
23980 1 0.296091 0.953429 0.649777
23981 1 0.282026 0.282942 0.674744
23982 1 0.310155 0.610708 0.674773
23984 1 0.267957 0.124797 0.649762
23986 1 0.296091 0.453429 0.649777
23987 1 0.282026 0.782941 0.674744
23988 1 0.310155 0.110709 0.674773
23989 1 0.324219 0.280891 0.649809
23990 1 0.35234 0.606862 0.649866
23991 1 0.338278 0.937279 0.674823
23992 1 0.380453 0.930977 0.649953
23993 1 0.366394 0.26244 0.674898
23995 1 0.324219 0.78089 0.649809
23996 1 0.35234 0.106862 0.649866
23997 1 0.338278 0.437279 0.674823
23998 1 0.380453 0.430976 0.649953
23999 1 0.366394 0.76244 0.674898
23994 1 0.394505 0.58604 0.674997
24000 1 0.394505 0.0860391 0.674997
24001 1 0.408562 0.252949 0.650075
24002 1 0.436676 0.572832 0.65022
24003 1 0.422619 0.908108 0.675114
24007 1 0.408562 0.75295 0.650075
24008 1 0.436676 0.0728327 0.650219
24009 1 0.422619 0.40811 0.675114
24019 1 0.492961 0.709095 0.65039
24013 1 0.492961 0.209092 0.650391
24004 1 0.46481 0.891267 0.650342
24005 1 0.450745 0.228992 0.675225
24006 1 0.478886 0.549203 0.675292
24010 1 0.46481 0.391266 0.650342
24011 1 0.450745 0.728989 0.675225
24012 1 0.478886 0.0492064 0.675292
24496 3 0.0426091 0.968788 0.69984
24498 3 0.0566827 0.630957 0.72482
24502 3 0.0426091 0.468788 0.69984
24504 3 0.0566827 0.130958 0.72482
25066 1 0.127216 0.455025 0.749686
25064 3 0.0989034 0.124104 0.7498
25063 3 0.0707563 0.793088 0.7498
24505 3 0.0707563 0.300303 0.69984
24506 1 0.0991143 0.631727 0.699772