ITEM: TIMESTEP
42
ITEM: NUMBER OF ATOMS
2356
ITEM: BOX BOUNDS ss pp ss
-4.1554853657999999e+01 4.1263454361000001e+01
-4.1208122699999999e-01 4.5329187729999996e+00
-4.1753968929999999e+01 4.1081016622000000e+01
ITEM: ATOMS id type xs ys zs
17356 3 0.295933 0.091196 0.0491324
17362 3 0.295933 0.591195 0.0491324
16815 3 0.338154 0.0988293 0.0247612
16817 3 0.366301 0.436419 0.0247612
16821 3 0.338154 0.598829 0.0247612
16823 3 0.366301 0.93642 0.0247612
17365 3 0.32408 0.428708 0.0491324
17366 3 0.352228 0.7664 0.0491324
17368 3 0.380375 0.104255 0.0491324
17371 3 0.32408 0.928709 0.0491324
17372 3 0.352228 0.266401 0.0491324
17374 3 0.380375 0.604255 0.0491324
16818 3 0.394448 0.774143 0.0247612
16824 3 0.394448 0.274143 0.0247612
16827 3 0.422595 0.111977 0.0247612
16833 3 0.422595 0.611977 0.0247612
17377 3 0.408522 0.44225 0.0491324
17378 1 0.436783 0.780449 0.0491999
17383 3 0.408522 0.94225 0.0491324
17384 1 0.436783 0.280449 0.0491999
16828 3 0.464816 0.119175 0.00038994
16829 3 0.450743 0.449897 0.0247612
16830 3 0.47889 0.787874 0.0247612
16834 3 0.464816 0.619175 0.00038994
16835 3 0.450743 0.949897 0.0247612
16836 3 0.47889 0.287874 0.0247612
17380 1 0.464932 0.119786 0.0494736
17386 1 0.464932 0.619786 0.0494736
16837 3 0.492963 0.456944 0.00038994
16843 3 0.492963 0.956944 0.00038994
17389 1 0.493041 0.457356 0.0495127
17395 1 0.493041 0.957356 0.0495127
17895 3 0.169271 0.0679952 0.122246
17901 3 0.169271 0.567995 0.122246
17355 3 0.253713 0.0834152 0.0735036
17361 3 0.253713 0.583415 0.0735036
17896 3 0.211492 0.0756329 0.0978748
17897 3 0.197418 0.404788 0.122246
17898 3 0.225565 0.74184 0.122246
17902 3 0.211492 0.575632 0.0978748
17903 3 0.197418 0.904789 0.122246
17904 3 0.225565 0.241841 0.122246
17905 3 0.239639 0.412736 0.0978748
17907 1 0.253852 0.080077 0.122477
17911 3 0.239639 0.912737 0.0978748
17913 1 0.253852 0.580077 0.122477
17357 3 0.28186 0.420764 0.0735036
17358 3 0.310007 0.758331 0.0735036
17363 3 0.28186 0.920764 0.0735036
17364 3 0.310007 0.258332 0.0735036
17906 3 0.267786 0.750086 0.0978748
17908 1 0.296061 0.088696 0.0981214
17909 1 0.282043 0.417801 0.122569
17910 1 0.31014 0.755652 0.122516
17912 3 0.267786 0.250087 0.0978748
17914 1 0.296061 0.588696 0.0981214
17915 1 0.282043 0.917801 0.122569
17916 1 0.31014 0.255652 0.122516
17367 1 0.33823 0.0969188 0.0738117
17369 1 0.366416 0.434634 0.0738458
17373 1 0.33823 0.596919 0.0738117
17375 1 0.366416 0.934634 0.0738458
17917 1 0.324239 0.426518 0.0982371
17918 1 0.352346 0.764474 0.0981557
17919 1 0.338283 0.0938992 0.122524
17920 1 0.380485 0.10273 0.0980965
17921 1 0.366417 0.432225 0.122488
17923 1 0.324239 0.926518 0.0982371
17924 1 0.352346 0.264474 0.0981557
17925 1 0.338283 0.593899 0.122524
17926 1 0.380485 0.60273 0.0980965
17927 1 0.366417 0.932225 0.122488
17370 1 0.394518 0.772524 0.0737096
17376 1 0.394518 0.272524 0.0737096
17379 1 0.422676 0.111 0.0736574
17385 1 0.422676 0.611 0.0736574
17922 1 0.394541 0.770831 0.122448
17928 1 0.394541 0.270831 0.122448
17929 1 0.408604 0.441088 0.0980332
17930 1 0.436713 0.779701 0.0980692
17931 1 0.422651 0.109546 0.122443
17935 1 0.408604 0.941088 0.0980332
17936 1 0.436713 0.279701 0.0980692
17937 1 0.422651 0.609546 0.122443
17381 1 0.450824 0.449802 0.0737804
17382 1 0.478944 0.788315 0.0738411
17387 1 0.450824 0.949802 0.0737804
17388 1 0.478944 0.288315 0.0738411
17932 1 0.464845 0.118568 0.098162
17933 1 0.450767 0.448502 0.122487
17934 1 0.478899 0.787615 0.122538
17938 1 0.464845 0.618568 0.098162
17939 1 0.450767 0.948502 0.122487
17940 1 0.478899 0.287615 0.122538
17941 1 0.492974 0.457201 0.0982095
17947 1 0.492974 0.957201 0.0982095
18438 3 0.141124 0.726015 0.170988
18444 3 0.141124 0.226015 0.170988
18445 3 0.155198 0.397071 0.146617
18446 3 0.183345 0.733765 0.146617
18447 3 0.169271 0.0625786 0.170988
18451 3 0.155198 0.897072 0.146617
18452 3 0.183345 0.233766 0.146617
18453 3 0.169271 0.562578 0.170988
18448 1 0.211707 0.0712839 0.146828
18449 1 0.197641 0.399631 0.171248
18450 1 0.225721 0.737074 0.171204
18454 1 0.211707 0.571284 0.146828
18455 1 0.197641 0.899631 0.171248
18456 1 0.225721 0.237074 0.171204
18457 1 0.239856 0.408757 0.146922
18459 1 0.253855 0.0748612 0.171213
18463 1 0.239856 0.908757 0.146922
18465 1 0.253855 0.574861 0.171213
18458 1 0.267938 0.746427 0.146857
18460 1 0.29607 0.0844868 0.146868
18461 1 0.281979 0.41275 0.171201
18462 1 0.310113 0.751059 0.171199
18464 1 0.267938 0.246427 0.146857
18466 1 0.29607 0.584487 0.146868
18467 1 0.281979 0.91275 0.171201
18468 1 0.310113 0.251059 0.171199
18469 1 0.324201 0.422662 0.146861
18470 1 0.352338 0.761237 0.146849
18471 1 0.338249 0.0896643 0.171195
18472 1 0.380468 0.100001 0.146828
18473 1 0.366386 0.428625 0.171192
18475 1 0.324201 0.922662 0.146861
18476 1 0.352338 0.261237 0.146849
18477 1 0.338249 0.589664 0.171195
18478 1 0.380468 0.600001 0.146828
18479 1 0.366386 0.928625 0.171192
18474 1 0.394516 0.767875 0.171192
18480 1 0.394516 0.267875 0.171192
18481 1 0.408589 0.438977 0.146822
18482 1 0.436706 0.778166 0.146842
18483 1 0.422641 0.107386 0.171205
18487 1 0.408589 0.938977 0.146822
18488 1 0.436706 0.278166 0.146842
18489 1 0.422641 0.607386 0.171205
18484 1 0.464832 0.117585 0.146877
18485 1 0.450768 0.447155 0.171229
18486 1 0.478901 0.787132 0.171252
18490 1 0.464832 0.617585 0.146877
18491 1 0.450768 0.947155 0.171229
18492 1 0.478901 0.287132 0.171252
18493 1 0.492967 0.457131 0.146904
18499 1 0.492967 0.957131 0.146904
18987 3 0.0848298 0.0476366 0.219731
18988 3 0.127051 0.0548463 0.19536
18989 3 0.112977 0.38359 0.219731
18993 3 0.0848298 0.547636 0.219731
18994 3 0.127051 0.554846 0.19536
18995 3 0.112977 0.883591 0.219731
19537 3 0.0707563 0.37653 0.244102
19538 3 0.0989034 0.712277 0.244102
19540 1 0.127247 0.0488484 0.244358
19543 3 0.0707563 0.87653 0.244102
19544 3 0.0989034 0.212277 0.244102
19546 1 0.127247 0.548848 0.244358
18990 1 0.141089 0.71895 0.21987
18996 1 0.141089 0.21895 0.21987
18997 1 0.155229 0.389876 0.19545
18998 1 0.183476 0.727587 0.195519
18999 1 0.169334 0.0559526 0.219884
19003 1 0.155229 0.889876 0.19545
19004 1 0.183476 0.227587 0.195519
19005 1 0.169334 0.555953 0.219884
19549 1 0.15533 0.384614 0.244284
19550 1 0.183408 0.721122 0.244194
19555 1 0.15533 0.884614 0.244284
19556 1 0.183408 0.221122 0.244194
19000 1 0.211591 0.0651971 0.195533
19001 1 0.19746 0.393112 0.219846
19002 1 0.225619 0.730649 0.219856
19006 1 0.211591 0.565197 0.195533
19007 1 0.19746 0.893112 0.219846
19008 1 0.225619 0.230649 0.219856
19009 1 0.239737 0.402828 0.195538
19011 1 0.253763 0.0684106 0.219857
19015 1 0.239737 0.902828 0.195538
19017 1 0.253763 0.568411 0.219857
19552 1 0.211532 0.05825 0.244179
19558 1 0.211532 0.55825 0.244179
19561 1 0.239665 0.395792 0.244181
19567 1 0.239665 0.895792 0.244181
19010 1 0.267875 0.740777 0.195534
19012 1 0.296013 0.0789901 0.195531
19013 1 0.281908 0.406553 0.219861
19014 1 0.310051 0.745142 0.219865
19016 1 0.267875 0.240777 0.195534
19018 1 0.296013 0.57899 0.195531
19019 1 0.281908 0.906553 0.219861
19020 1 0.310051 0.245142 0.219865
19562 1 0.267805 0.733763 0.244186
19564 1 0.295945 0.0722299 0.24419
19568 1 0.267805 0.233763 0.244186
19570 1 0.295945 0.57223 0.24419
19021 1 0.324154 0.41763 0.195535
19022 1 0.352295 0.756702 0.195539
19023 1 0.338195 0.0842424 0.219873
19024 1 0.380432 0.0961834 0.195546
19025 1 0.366337 0.423861 0.219887
19027 1 0.324154 0.91763 0.195535
19028 1 0.352295 0.256702 0.195539
19029 1 0.338195 0.584242 0.219873
19030 1 0.380432 0.596183 0.195546
19031 1 0.366337 0.923861 0.219887
19573 1 0.324089 0.411258 0.2442
19574 1 0.352234 0.750898 0.244215
19576 1 0.380382 0.0911645 0.244238
19579 1 0.324089 0.911258 0.2442
19580 1 0.352234 0.250898 0.244215
19582 1 0.380382 0.591164 0.244238
19026 1 0.394479 0.763963 0.219905
19032 1 0.394479 0.263963 0.219905
19033 1 0.408566 0.436015 0.195561
19034 1 0.436699 0.776174 0.195582
19035 1 0.42262 0.104508 0.219929
19039 1 0.408566 0.936015 0.195561
19040 1 0.436699 0.276174 0.195582
19041 1 0.42262 0.604508 0.219929
19585 1 0.40853 0.432038 0.244265
19586 1 0.436679 0.773452 0.244294
19591 1 0.40853 0.932038 0.244265
19592 1 0.436679 0.273452 0.244294
19036 1 0.464834 0.11661 0.195604
19037 1 0.450761 0.445433 0.219953
19038 1 0.478904 0.786635 0.219969
19042 1 0.464834 0.61661 0.195604
19043 1 0.450761 0.945433 0.219953
19044 1 0.478904 0.286635 0.219969
19588 1 0.464829 0.11529 0.244317
19594 1 0.464829 0.61529 0.244317
19045 1 0.492974 0.457222 0.195616
19051 1 0.492974 0.957222 0.195616
19597 1 0.49298 0.457376 0.244326
19603 1 0.49298 0.957376 0.244326
19530 3 0.0566827 0.705414 0.268473
19536 3 0.0566827 0.205415 0.268473
20080 3 0.0426091 0.0343167 0.292845
20086 3 0.0426091 0.534316 0.292845
19539 3 0.0848298 0.0409364 0.268473
19541 1 0.11323 0.376882 0.268713
19545 3 0.0848298 0.540936 0.268473
19547 1 0.11323 0.876882 0.268713
20089 3 0.0707563 0.3696 0.292845
20090 1 0.0992344 0.704845 0.292948
20092 1 0.127268 0.0408497 0.292973
20095 3 0.0707563 0.869601 0.292845
20096 1 0.0992344 0.204845 0.292948
20098 1 0.127268 0.54085 0.292973
19542 1 0.14131 0.713032 0.268647
19548 1 0.14131 0.213032 0.268647
19551 1 0.169395 0.0492095 0.26858
19557 1 0.169395 0.549209 0.26858
20101 1 0.15536 0.377027 0.292954
20102 1 0.183439 0.71342 0.292907
20107 1 0.15536 0.877027 0.292954
20108 1 0.183439 0.21342 0.292907
19553 1 0.197483 0.38583 0.268533
19554 1 0.225591 0.723008 0.268518
19559 1 0.197483 0.88583 0.268533
19560 1 0.225591 0.223008 0.268518
19563 1 0.253713 0.0607019 0.268516
19569 1 0.253713 0.560702 0.268516
20104 1 0.21153 0.0501844 0.292875
20110 1 0.21153 0.550184 0.292875
20113 1 0.239634 0.387494 0.292859
20119 1 0.239634 0.887494 0.292859
19565 1 0.281843 0.398935 0.268517
19566 1 0.309981 0.73778 0.268523
19571 1 0.281843 0.898935 0.268517
19572 1 0.309981 0.23778 0.268523
20114 1 0.267749 0.725375 0.292851
20116 1 0.295876 0.0639017 0.29285
20120 1 0.267749 0.225375 0.292851
20122 1 0.295876 0.563902 0.29285
19575 1 0.338124 0.0773116 0.268536
19577 1 0.366274 0.417597 0.268559
20134 1 0.380312 0.58436 0.292901
19581 1 0.338124 0.577312 0.268536
19583 1 0.366274 0.917597 0.268559
20132 1 0.352157 0.243281 0.292873
20131 1 0.324012 0.903163 0.292856
20128 1 0.380312 0.08436 0.292901
20125 1 0.324012 0.403163 0.292856
20126 1 0.352157 0.743281 0.292873
20144 1 0.436642 0.269512 0.292979
20143 1 0.408475 0.926454 0.292939
20138 1 0.436642 0.769512 0.292979
20137 1 0.408475 0.426454 0.292939
19578 1 0.394428 0.758671 0.268589
19584 1 0.394428 0.258671 0.268589
19587 1 0.422584 0.100508 0.268624
19593 1 0.422584 0.600508 0.268624
20146 1 0.464813 0.613331 0.29301
20140 1 0.464813 0.113331 0.29301
19589 1 0.450743 0.442994 0.268655
19590 1 0.478903 0.785926 0.268674
19595 1 0.450743 0.942994 0.268655
19596 1 0.478903 0.285926 0.268674
20149 1 0.492985 0.457575 0.293021
20155 1 0.492985 0.957576 0.293021
20640 3 0.0566827 0.190615 0.365958
20639 3 0.0285356 0.855934 0.365958
20638 3 0.0426091 0.52707 0.341587
20634 3 0.0566827 0.690614 0.365958
20633 3 0.0285356 0.355934 0.365958
20632 3 0.0426091 0.0270706 0.341587
20082 3 0.0566827 0.698302 0.317216
20088 3 0.0566827 0.198302 0.317216
20651 1 0.113098 0.860468 0.365957
20650 1 0.127206 0.532476 0.341638
20649 1 0.084985 0.525395 0.365925
20648 1 0.0991193 0.19693 0.34161
20647 1 0.0708367 0.862393 0.341502
20645 1 0.113098 0.360468 0.365957
20644 1 0.127206 0.0324755 0.341638
20643 1 0.084985 0.0253951 0.365925
20642 1 0.0991193 0.69693 0.34161
20641 1 0.0708367 0.362393 0.341502
20091 1 0.0851411 0.0327945 0.317266
20093 1 0.113216 0.368637 0.317293
20097 1 0.0851411 0.532794 0.317266
20099 1 0.113216 0.868637 0.317293
20661 1 0.169325 0.531633 0.365973
20660 1 0.183399 0.204497 0.341613
20659 1 0.155303 0.868354 0.341634
20655 1 0.169325 0.0316329 0.365973
20654 1 0.183399 0.704497 0.341613
20653 1 0.155303 0.368354 0.341634
20652 1 0.141219 0.195884 0.365979
20646 1 0.141219 0.695884 0.365979
20094 1 0.1413 0.704704 0.317302
20100 1 0.1413 0.204704 0.317302
20103 1 0.16938 0.0408983 0.317277
20109 1 0.16938 0.540898 0.317277
20673 1 0.25361 0.541048 0.3659
20671 1 0.239587 0.877894 0.341559
20667 1 0.25361 0.0410481 0.3659
20665 1 0.239587 0.377894 0.341559
20664 1 0.225516 0.204104 0.365927
20663 1 0.197422 0.867678 0.365953
20662 1 0.211491 0.540958 0.341585
20658 1 0.225516 0.704104 0.365927
20657 1 0.197422 0.367678 0.365953
20656 1 0.211491 0.0409579 0.341585
20105 1 0.197469 0.377352 0.317245
20106 1 0.225562 0.714231 0.317218
20111 1 0.197469 0.877352 0.317245
20112 1 0.225562 0.214231 0.317218
20115 1 0.253664 0.0516687 0.317199
20121 1 0.253664 0.551669 0.317199
20676 1 0.309814 0.217065 0.365856
20675 1 0.281708 0.878643 0.365876
20674 1 0.295798 0.553684 0.341522
20672 1 0.267688 0.215429 0.341537
20670 1 0.309814 0.717065 0.365856
20669 1 0.281708 0.378643 0.365876
20668 1 0.295798 0.053684 0.341522
20666 1 0.267688 0.715429 0.341537
20117 1 0.281777 0.389743 0.317187
20118 1 0.309901 0.728573 0.317183
20123 1 0.281777 0.889743 0.317187
20124 1 0.309901 0.228573 0.317183
20687 1 0.366068 0.897462 0.365844
20686 1 0.38021 0.57481 0.341539
20685 1 0.337932 0.556564 0.365844
20684 1 0.352056 0.233128 0.341519
20683 1 0.32392 0.892843 0.341514
20681 1 0.366068 0.397462 0.365844
20680 1 0.38021 0.0748098 0.341539
20679 1 0.337932 0.0565644 0.365844
20678 1 0.352056 0.733128 0.341519
20677 1 0.32392 0.392843 0.341514
20135 1 0.366186 0.909133 0.317208
20133 1 0.338037 0.568312 0.317189
20129 1 0.366186 0.409133 0.317208
20127 1 0.338037 0.0683116 0.317189
20697 1 0.422419 0.585237 0.365906
20696 1 0.436576 0.263306 0.341628
20695 1 0.408385 0.918162 0.341578
20691 1 0.422419 0.0852371 0.365906
20690 1 0.436576 0.763305 0.341628
20689 1 0.408385 0.418162 0.341578
20688 1 0.394229 0.240198 0.365864
20682 1 0.394229 0.740198 0.365864
20145 1 0.422524 0.594615 0.317286
20139 1 0.422524 0.0946155 0.317286
20136 1 0.394349 0.25121 0.317242
20130 1 0.394349 0.75121 0.317242
20700 1 0.478867 0.282585 0.366001
20699 1 0.450635 0.932853 0.365962
20698 1 0.464779 0.610053 0.341672
20694 1 0.478867 0.782585 0.366001
20693 1 0.450635 0.432853 0.365962
20692 1 0.464779 0.110052 0.341672
20148 1 0.478892 0.284753 0.317356
20147 1 0.450706 0.939242 0.317329
20142 1 0.478892 0.784754 0.317356
20141 1 0.450706 0.439242 0.317329
20707 1 0.492986 0.957764 0.341688
20701 1 0.492986 0.457764 0.341688
21742 1 0.0426594 0.512186 0.438996
21740 3 0.014462 0.17722 0.439072
21736 1 0.0426594 0.0121856 0.438996
21734 3 0.014462 0.67722 0.439072
21192 1 0.0570037 0.181835 0.414731
21191 3 0.0285356 0.848189 0.414701
21190 3 0.0426091 0.519326 0.390329
21188 3 0.014462 0.184917 0.390329
21186 1 0.0570037 0.681835 0.414731
21185 3 0.0285356 0.348188 0.414701
21184 3 0.0426091 0.0193269 0.390329
21182 3 0.014462 0.684917 0.390329
21754 1 0.127181 0.513603 0.439055
21752 1 0.0990923 0.17924 0.439062
21751 1 0.0709993 0.845168 0.439063
21748 1 0.127181 0.0136033 0.439055
21746 1 0.0990923 0.67924 0.439062
21745 1 0.0709993 0.345168 0.439063
21203 1 0.11314 0.851106 0.414685
21202 1 0.127167 0.523373 0.39032
21201 1 0.0850764 0.516492 0.414699
21200 1 0.0990778 0.188262 0.390297
21199 1 0.0710933 0.853642 0.39035
21197 1 0.11314 0.351106 0.414685
21196 1 0.127167 0.023373 0.39032
21195 1 0.0850764 0.0164917 0.414699
21194 1 0.0990778 0.688262 0.390297
21193 1 0.0710933 0.353642 0.39035
21764 1 0.183369 0.183155 0.439042
21763 1 0.155275 0.848268 0.439051
21758 1 0.183369 0.683155 0.439042
21757 1 0.155275 0.348268 0.439051
21213 1 0.169313 0.521226 0.414684
21212 1 0.183361 0.194406 0.390319
21211 1 0.155263 0.858775 0.390328
21207 1 0.169313 0.0212257 0.414684
21206 1 0.183361 0.694406 0.390319
21205 1 0.155263 0.358775 0.390328
21204 1 0.141219 0.186035 0.414686
21198 1 0.141219 0.686035 0.414686
21775 1 0.239549 0.853678 0.439002
21769 1 0.239549 0.353678 0.439002
21766 1 0.211461 0.518267 0.439025
21760 1 0.211461 0.0182666 0.439025
21225 1 0.253583 0.528531 0.414621
21223 1 0.239545 0.866673 0.390272
21219 1 0.253583 0.0285307 0.414621
21217 1 0.239545 0.366673 0.390272
21216 1 0.225496 0.19238 0.414648
21215 1 0.197406 0.85665 0.41467
21214 1 0.211455 0.530337 0.390298
21210 1 0.225496 0.69238 0.414648
21209 1 0.197406 0.35665 0.41467
21208 1 0.211455 0.0303366 0.390298
21778 1 0.295713 0.52586 0.438945
21776 1 0.267633 0.189491 0.438975
21772 1 0.295713 0.0258596 0.438945
21770 1 0.267633 0.689491 0.438975
21228 1 0.309753 0.202718 0.41456
21227 1 0.281668 0.865245 0.414591
21226 1 0.295728 0.541152 0.390216
21224 1 0.267635 0.203559 0.390244
21222 1 0.309753 0.702718 0.41456
21221 1 0.281668 0.365245 0.414591
21220 1 0.295728 0.0411516 0.390216
21218 1 0.267635 0.703559 0.390244
21790 1 0.379946 0.541369 0.438832
21788 1 0.351865 0.201334 0.438873
21787 1 0.32379 0.863019 0.438911
21784 1 0.379946 0.0413694 0.438832
21782 1 0.351865 0.701334 0.438873
21781 1 0.32379 0.363019 0.438911
21239 1 0.365943 0.88129 0.414499
21238 1 0.380072 0.561066 0.390164
21237 1 0.337842 0.541255 0.414528
21236 1 0.351939 0.219498 0.390171
21235 1 0.323828 0.879687 0.390191
21233 1 0.365943 0.38129 0.414499
21232 1 0.380072 0.0610653 0.390164
21231 1 0.337842 0.0412546 0.414528
21230 1 0.351939 0.719498 0.390171
21229 1 0.323828 0.379687 0.390191
21800 1 0.436196 0.231932 0.438743
21799 1 0.408046 0.884117 0.438789
21794 1 0.436196 0.731931 0.438743
21793 1 0.408046 0.384117 0.438789
21249 1 0.422233 0.569201 0.414475
21248 1 0.436451 0.252549 0.390221
21247 1 0.408239 0.905096 0.390178
21243 1 0.422233 0.0692016 0.414475
21242 1 0.436451 0.752548 0.390221
21241 1 0.408239 0.405096 0.390178
21240 1 0.394066 0.223525 0.414478
21234 1 0.394066 0.723525 0.414478
21802 1 0.46451 0.58962 0.438781
21796 1 0.46451 0.0896193 0.438781
21252 1 0.47881 0.277916 0.414583
21251 1 0.450479 0.920391 0.414516
21250 1 0.464708 0.603922 0.390282
21246 1 0.47881 0.777917 0.414583
21245 1 0.450479 0.420392 0.414516
21244 1 0.464708 0.103921 0.390282
21811 1 0.492983 0.958141 0.438867
21805 1 0.492983 0.45814 0.438867
21259 1 0.492985 0.957962 0.390308
21253 1 0.492986 0.457962 0.390308
21744 1 0.0569946 0.173696 0.463423
21743 3 0.0285356 0.840149 0.463443
21741 3 0.00038843 0.506434 0.463443
21738 1 0.0569946 0.673696 0.463423
21737 3 0.0285356 0.340148 0.463443
21735 3 0.00038843 0.00643477 0.463443
22286 3 0.014462 0.66932 0.487814
22288 1 0.0429021 0.00225154 0.487861
22292 3 0.014462 0.16932 0.487814
22294 1 0.0429021 0.502252 0.487861
21755 1 0.113145 0.841435 0.463424
21753 1 0.0850435 0.507459 0.463418
21749 1 0.113145 0.341435 0.463424
21747 1 0.0850435 0.00745932 0.463418
22297 1 0.0710228 0.335883 0.487788
22298 1 0.0991203 0.669487 0.487791
22300 1 0.127212 0.00323466 0.487791
22303 1 0.0710228 0.835883 0.487788
22304 1 0.0991203 0.169487 0.487791
22306 1 0.127212 0.503235 0.487791
21765 1 0.169339 0.509952 0.463414
21759 1 0.169339 0.00995168 0.463414
21756 1 0.141242 0.17561 0.463421
21750 1 0.141242 0.67561 0.463421
22309 1 0.155312 0.337099 0.487787
22310 1 0.183413 0.67103 0.487777
22315 1 0.155312 0.837099 0.487787
22316 1 0.183413 0.17103 0.487777
21777 1 0.253618 0.514063 0.463362
21771 1 0.253618 0.0140628 0.463362
21768 1 0.225528 0.179136 0.463384
21767 1 0.197435 0.844454 0.463401
21762 1 0.225528 0.679136 0.463384
21761 1 0.197435 0.344454 0.463401
22312 1 0.211513 0.00503392 0.487762
22318 1 0.211513 0.505034 0.487762
22321 1 0.239611 0.339132 0.487745
22327 1 0.239611 0.839132 0.487745
21780 1 0.309779 0.185077 0.463307
21779 1 0.281701 0.849324 0.463336
21774 1 0.309779 0.685077 0.463307
21773 1 0.281701 0.349324 0.463336
22322 1 0.267705 0.67335 0.487726
22324 1 0.295793 0.00775273 0.487703
22328 1 0.267705 0.17335 0.487726
22330 1 0.295793 0.507753 0.487703
21791 1 0.365908 0.85922 0.463232
21789 1 0.337848 0.521571 0.463273
21785 1 0.365908 0.35922 0.463232
21783 1 0.337848 0.0215715 0.463273
22333 1 0.323873 0.34246 0.487679
22334 1 0.351942 0.677663 0.487652
22336 1 0.379987 0.0136682 0.487619
22339 1 0.323873 0.84246 0.487679
22340 1 0.351942 0.177663 0.487652
22342 1 0.379987 0.513669 0.487619
21801 1 0.422005 0.541483 0.463107
21795 1 0.422005 0.0414826 0.463107
21792 1 0.393958 0.198736 0.46318
21786 1 0.393958 0.698737 0.46318
22345 1 0.407993 0.351046 0.487574
22346 1 0.435959 0.691071 0.487507
22351 1 0.407993 0.851046 0.487574
22352 1 0.435959 0.191072 0.487508
21804 1 0.478609 0.262593 0.46306
21803 1 0.450121 0.892007 0.462986
21798 1 0.478609 0.762593 0.46306
21797 1 0.450121 0.392008 0.462986
22348 1 0.464012 0.0415654 0.487351
22354 1 0.464012 0.541565 0.487351
22357 1 0.49298 0.458292 0.4874
22363 1 0.49298 0.958293 0.4874
22287 3 0.00038843 0.998711 0.512186
22289 3 0.0285356 0.331967 0.512186
22290 1 0.0570714 0.6646 0.512173
22293 3 0.00038843 0.49871 0.512186
22295 3 0.0285356 0.831967 0.512186
22296 1 0.0570714 0.1646 0.512173
22838 3 0.014462 0.661367 0.536557
22839 3 0.00038843 0.991011 0.560928
22840 1 0.0429059 0.993683 0.536487
22841 3 0.0285356 0.323814 0.560928
22842 1 0.0570032 0.655991 0.560911
22844 3 0.014462 0.161368 0.536557
22845 3 0.00038843 0.491011 0.560928
22846 1 0.0429059 0.493683 0.536487
22847 3 0.0285356 0.823815 0.560928
22848 1 0.0570032 0.155991 0.560911
22299 1 0.085103 0.99779 0.512168
22301 1 0.113185 0.331185 0.512165
22305 1 0.085103 0.49779 0.512168
22307 1 0.113185 0.831185 0.512165
22849 1 0.0710356 0.326711 0.536551
22850 1 0.0991424 0.65966 0.536542
22851 1 0.0850707 0.988547 0.560915
22852 1 0.127246 0.992674 0.536532
22853 1 0.113197 0.321209 0.560901
22855 1 0.0710356 0.826711 0.536551
22856 1 0.0991424 0.15966 0.536542
22857 1 0.0850707 0.488547 0.560915
22858 1 0.127246 0.492674 0.536532
22859 1 0.113197 0.821209 0.560901
22302 1 0.141285 0.66465 0.512159
22308 1 0.141285 0.16465 0.512159
22311 1 0.16939 0.998083 0.512151
22317 1 0.16939 0.498083 0.512151
22854 1 0.141317 0.653806 0.560892
22860 1 0.141317 0.153806 0.560892
22861 1 0.155359 0.32567 0.536523
22862 1 0.183473 0.658553 0.536512
22863 1 0.169438 0.986259 0.560883
22867 1 0.155359 0.82567 0.536523
22868 1 0.183473 0.158553 0.536512
22869 1 0.169438 0.486259 0.560883
22313 1 0.197497 0.331482 0.512138
22314 1 0.225603 0.664842 0.512125
22319 1 0.197497 0.831482 0.512138
22320 1 0.225603 0.164842 0.512125
22323 1 0.253709 0.99815 0.512109
22329 1 0.253709 0.49815 0.512109
22864 1 0.211588 0.991296 0.5365
22865 1 0.19756 0.318509 0.560872
22866 1 0.225684 0.650496 0.56086
22870 1 0.211588 0.491296 0.5365
22871 1 0.19756 0.818509 0.560872
22872 1 0.225684 0.150496 0.56086
22873 1 0.239704 0.323856 0.536487
22875 1 0.25381 0.982111 0.56085
22879 1 0.239704 0.823856 0.536487
22881 1 0.25381 0.482112 0.56085
22325 1 0.281812 0.331378 0.512093
22326 1 0.309911 0.66452 0.512078
22331 1 0.281812 0.831378 0.512093
22332 1 0.309911 0.16452 0.512078
22874 1 0.26782 0.656154 0.536475
22876 1 0.295935 0.988085 0.536466
22877 1 0.281936 0.313207 0.560844
22878 1 0.310062 0.643586 0.560844
22880 1 0.26782 0.156154 0.536475
22882 1 0.295935 0.488085 0.536466
22883 1 0.281935 0.813207 0.560844
22884 1 0.310062 0.143586 0.560844
22335 1 0.338003 0.997548 0.512064
22337 1 0.366084 0.330345 0.512055
22341 1 0.338003 0.497548 0.512064
22343 1 0.366084 0.830345 0.512055
22885 1 0.324048 0.319504 0.536461
22886 1 0.352158 0.65007 0.536465
22887 1 0.338186 0.972895 0.560855
22888 1 0.380265 0.979121 0.536487
22889 1 0.366308 0.300486 0.560886
22891 1 0.324048 0.819503 0.536461
22892 1 0.352158 0.15007 0.536465
22893 1 0.338186 0.472895 0.560855
22894 1 0.380265 0.47912 0.536487
22895 1 0.366308 0.800486 0.560886
22338 1 0.394145 0.662615 0.512052
22344 1 0.394145 0.162615 0.512052
22347 1 0.422183 0.993501 0.512067
22353 1 0.422183 0.4935 0.512067
22890 1 0.394425 0.625237 0.560954
22896 1 0.394425 0.125236 0.560954
22897 1 0.408369 0.305252 0.536545
22898 1 0.436493 0.625152 0.536673
22899 1 0.422541 0.945131 0.561088
22903 1 0.408369 0.805252 0.536545
22904 1 0.436493 0.125151 0.536673
22905 1 0.422541 0.445131 0.561088
22349 1 0.450266 0.320626 0.512133
22350 1 0.478539 0.625078 0.512403
22355 1 0.450266 0.820626 0.512133
22356 1 0.478539 0.125078 0.512403
22900 1 0.464636 0.929605 0.537018
22901 1 0.450651 0.256803 0.561367
22902 1 0.478812 0.559165 0.56172
22906 1 0.464636 0.429606 0.537018
22907 1 0.450651 0.756803 0.561367
22908 1 0.478812 0.0591639 0.56172
22909 1 0.492974 0.208612 0.537508
22915 1 0.492974 0.70861 0.537508
23390 3 0.014462 0.653519 0.585299
23392 3 0.0426091 0.986062 0.585299
23393 3 0.0285356 0.315857 0.609671
23394 1 0.0570013 0.646972 0.609592
23396 3 0.014462 0.153519 0.585299
23398 3 0.0426091 0.486062 0.585299
23399 3 0.0285356 0.815857 0.609671
23400 1 0.0570013 0.146972 0.609592
23401 1 0.0710058 0.317941 0.585264
23402 1 0.0991419 0.65022 0.585259
23403 1 0.0851124 0.979459 0.609614
23404 1 0.127267 0.982448 0.585259
23405 1 0.113222 0.311558 0.609623
23407 1 0.0710058 0.817941 0.585264
23408 1 0.0991419 0.15022 0.585259
23409 1 0.0851124 0.479459 0.609614
23410 1 0.127267 0.482448 0.585259
23411 1 0.113222 0.811558 0.609623
23406 1 0.141335 0.643429 0.609621
23412 1 0.141335 0.143429 0.609621
23413 1 0.155393 0.314568 0.585252
23414 1 0.183519 0.646445 0.585242
23415 1 0.169464 0.975053 0.609611
23419 1 0.155393 0.814568 0.585252
23420 1 0.183519 0.146445 0.585242
23421 1 0.169464 0.475053 0.609611
23416 1 0.211648 0.978016 0.585231
23417 1 0.197597 0.30633 0.609599
23418 1 0.225732 0.637173 0.609589
23422 1 0.211648 0.478016 0.585231
23423 1 0.197597 0.80633 0.609599
23424 1 0.225732 0.137173 0.609589
23425 1 0.23978 0.309165 0.585221
23427 1 0.253869 0.967435 0.609584
23431 1 0.23978 0.809165 0.585221
23433 1 0.253869 0.467435 0.609584
23426 1 0.267913 0.639735 0.585216
23428 1 0.296045 0.969521 0.585218
23429 1 0.282005 0.296936 0.609587
23430 1 0.310139 0.625423 0.609602
23432 1 0.267913 0.139735 0.585216
23434 1 0.296045 0.469521 0.585218
23435 1 0.282005 0.796936 0.609587
23436 1 0.310139 0.125423 0.609602
23437 1 0.324176 0.298222 0.585232
23438 1 0.352303 0.625335 0.585266
23439 1 0.338268 0.952538 0.609635
23440 1 0.380424 0.950082 0.585333
23441 1 0.366389 0.277773 0.609696
23443 1 0.324176 0.798222 0.585232
23444 1 0.352303 0.125335 0.585266
23445 1 0.338268 0.452538 0.609635
23446 1 0.380424 0.450082 0.585333
23447 1 0.366389 0.777773 0.609696
23442 1 0.394503 0.600502 0.609795
23448 1 0.394503 0.100502 0.609795
23449 1 0.408537 0.271351 0.58545
23450 1 0.436644 0.587768 0.58565
23451 1 0.42261 0.920134 0.609945
23455 1 0.408537 0.77135 0.58545
23456 1 0.436644 0.0877692 0.58565
23457 1 0.42261 0.420134 0.609945
23452 1 0.464771 0.899263 0.585901
23453 1 0.450728 0.236726 0.610126
23454 1 0.478882 0.551575 0.61025
23458 1 0.464771 0.399262 0.585901
23459 1 0.450728 0.736725 0.610126
23460 1 0.478882 0.0515765 0.61025
23461 1 0.49297 0.208754 0.586002
23467 1 0.49297 0.708756 0.586002
23942 3 0.014462 0.64592 0.634042
23944 3 0.0426091 0.978043 0.634042
23945 3 0.0285356 0.308239 0.658413
23946 3 0.0566827 0.640097 0.658413
23948 3 0.014462 0.14592 0.634042
23950 3 0.0426091 0.478043 0.634042
23951 3 0.0285356 0.808239 0.658413
23952 3 0.0566827 0.140098 0.658413
24496 3 0.0426091 0.970456 0.682784
24502 3 0.0426091 0.470455 0.682784
23953 1 0.0711072 0.309461 0.633966
23954 1 0.099143 0.641199 0.633996
23955 1 0.0850364 0.971633 0.658341
23956 1 0.127265 0.972874 0.63399
23957 1 0.113157 0.302956 0.658357
23959 1 0.0711072 0.809461 0.633966
23960 1 0.099143 0.141199 0.633996
23961 1 0.0850364 0.471633 0.658341
23962 1 0.127265 0.472874 0.63399
23963 1 0.113157 0.802956 0.658357
24505 3 0.0707563 0.302047 0.682784
24506 1 0.0990925 0.633349 0.68269
24508 1 0.127211 0.964377 0.682708
24511 3 0.0707563 0.802047 0.682784
24512 1 0.0990925 0.133349 0.68269
24514 1 0.127211 0.464377 0.682708
23958 1 0.141306 0.634109 0.658345
23964 1 0.141306 0.134109 0.658345
23965 1 0.155392 0.304287 0.63398
23966 1 0.18353 0.635354 0.633967
23967 1 0.169449 0.965001 0.658334
23971 1 0.155392 0.804287 0.63398
23972 1 0.18353 0.135354 0.633967
23973 1 0.169449 0.465001 0.658334
24517 1 0.155364 0.295145 0.682697
24518 1 0.18351 0.625601 0.682685
24523 1 0.155364 0.795145 0.682697
24524 1 0.18351 0.125601 0.682685
23968 1 0.21167 0.966001 0.633956
23969 1 0.197594 0.29552 0.658321
23970 1 0.225738 0.625553 0.658313
23974 1 0.21167 0.466001 0.633956
23975 1 0.197594 0.79552 0.658321
23976 1 0.225738 0.125553 0.658313
23977 1 0.23981 0.296103 0.633949
23979 1 0.253879 0.954959 0.658313
23983 1 0.23981 0.796103 0.633949
23985 1 0.253879 0.454959 0.658313
24520 1 0.211658 0.955634 0.682673
24526 1 0.211658 0.455634 0.682673
24529 1 0.239803 0.28511 0.682671
24535 1 0.239803 0.78511 0.682671
23978 1 0.267948 0.625502 0.633951
23980 1 0.296083 0.953996 0.633966
23981 1 0.282016 0.283569 0.658325
23982 1 0.310148 0.611202 0.658353
23984 1 0.267948 0.125502 0.633951
23986 1 0.296083 0.453996 0.633966
23987 1 0.282016 0.783569 0.658325
23988 1 0.310148 0.111202 0.658353
24530 1 0.267942 0.61389 0.682681
24532 1 0.296076 0.94184 0.682706
24536 1 0.267942 0.11389 0.682681
24538 1 0.296076 0.44184 0.682706
23989 1 0.324213 0.281328 0.633997
23990 1 0.352336 0.607172 0.634051
23991 1 0.338272 0.937647 0.658401
23992 1 0.38045 0.931168 0.634135
23993 1 0.366389 0.26268 0.658472
23995 1 0.324213 0.781328 0.633997
23996 1 0.352336 0.107172 0.634051
23997 1 0.338272 0.437647 0.658401
23998 1 0.38045 0.431167 0.634135
23999 1 0.366389 0.76268 0.658472
24541 1 0.324202 0.268823 0.682747
24542 1 0.352322 0.594705 0.682808
24544 1 0.380439 0.919397 0.682888
24547 1 0.324202 0.768823 0.682747
24548 1 0.352322 0.0947051 0.682808
24550 1 0.380439 0.419398 0.682888
23994 1 0.394502 0.586159 0.658568
24000 1 0.394502 0.0861589 0.658568
24001 1 0.40856 0.253032 0.634253
24002 1 0.436676 0.572824 0.634393
24003 1 0.422618 0.908128 0.658681
24007 1 0.40856 0.753032 0.634253
24008 1 0.436676 0.0728236 0.634393
24009 1 0.422618 0.408128 0.658681
24553 1 0.408556 0.242933 0.682981