ITEM: TIMESTEP
41
ITEM: NUMBER OF ATOMS
2350
ITEM: BOX BOUNDS ss pp ss
-4.1554853657999999e+01 4.1263454361000001e+01
-4.1208122699999999e-01 4.5329187729999996e+00
-4.1922201418000000e+01 4.0912784134000006e+01
ITEM: ATOMS id type xs ys zs
17356 3 0.295933 0.0913289 0.0491324
17362 3 0.295933 0.591328 0.0491324
16817 3 0.366301 0.436507 0.0247612
16823 3 0.366301 0.936508 0.0247612
17365 3 0.32408 0.428828 0.0491324
17366 3 0.352228 0.766505 0.0491324
17368 3 0.380375 0.104343 0.0491324
17371 3 0.32408 0.928829 0.0491324
17372 3 0.352228 0.266506 0.0491324
17374 3 0.380375 0.604343 0.0491324
16818 3 0.394448 0.774214 0.0247612
16824 3 0.394448 0.274215 0.0247612
16827 3 0.422595 0.112031 0.0247612
16833 3 0.422595 0.612031 0.0247612
17377 3 0.408522 0.442319 0.0491324
17378 1 0.436716 0.779194 0.0492374
17383 3 0.408522 0.94232 0.0491324
17384 1 0.436716 0.279194 0.0492374
16829 3 0.450743 0.449932 0.0247612
16830 3 0.47889 0.78789 0.0247612
16835 3 0.450743 0.949932 0.0247612
16836 3 0.47889 0.28789 0.0247612
17380 1 0.464909 0.118155 0.0492545
17386 1 0.464909 0.618155 0.0492545
16837 3 0.492963 0.45695 0.00038994
16843 3 0.492963 0.95695 0.00038994
17389 1 0.492968 0.457299 0.0496435
17395 1 0.492968 0.957299 0.0496435
17355 3 0.253713 0.083577 0.0735036
17361 3 0.253713 0.583577 0.0735036
17896 3 0.211492 0.0758205 0.0978748
17897 3 0.197418 0.404994 0.122246
17898 3 0.225565 0.74204 0.122246
17902 3 0.211492 0.57582 0.0978748
17903 3 0.197418 0.904995 0.122246
17904 3 0.225565 0.242041 0.122246
17905 3 0.239639 0.412917 0.0978748
17907 1 0.253903 0.0799779 0.122477
17911 3 0.239639 0.912918 0.0978748
17913 1 0.253903 0.579978 0.122477
17357 3 0.28186 0.420915 0.0735036
17358 3 0.310007 0.75847 0.0735036
17363 3 0.28186 0.920916 0.0735036
17364 3 0.310007 0.25847 0.0735036
17906 3 0.267786 0.750258 0.0978748
17908 1 0.296031 0.0885576 0.0981672
17909 1 0.282051 0.417644 0.122589
17910 1 0.310154 0.755533 0.122494
17912 3 0.267786 0.250258 0.0978748
17914 1 0.296031 0.588558 0.0981672
17915 1 0.282051 0.917644 0.122589
17916 1 0.310154 0.255533 0.122494
17367 1 0.338241 0.0957368 0.0735369
17369 1 0.366436 0.435158 0.0738315
17373 1 0.338241 0.595737 0.0735369
17375 1 0.366436 0.935158 0.0738315
17917 1 0.324249 0.426188 0.0981636
17918 1 0.352358 0.764258 0.0981335
17919 1 0.338279 0.0936822 0.122474
17920 1 0.380499 0.102762 0.0981701
17921 1 0.366406 0.432051 0.122498
17923 1 0.324249 0.926188 0.0981636
17924 1 0.352358 0.264258 0.0981335
17925 1 0.338279 0.593682 0.122474
17926 1 0.380499 0.602762 0.0981701
17927 1 0.366406 0.932051 0.122498
17370 1 0.394588 0.772738 0.0738577
17376 1 0.394588 0.272738 0.0738577
17379 1 0.422665 0.110378 0.0737554
17385 1 0.422665 0.610378 0.0737554
17922 1 0.394547 0.770709 0.122514
17928 1 0.394547 0.270709 0.122514
17929 1 0.408626 0.440982 0.0981363
17930 1 0.436736 0.779302 0.0981033
17931 1 0.42267 0.109422 0.122503
17935 1 0.408626 0.940982 0.0981363
17936 1 0.436736 0.279302 0.0981033
17937 1 0.42267 0.609422 0.122503
17381 1 0.450815 0.448855 0.0737448
17382 1 0.478927 0.787602 0.0739012
17387 1 0.450815 0.948855 0.0737448
17388 1 0.478927 0.287602 0.0739012
17932 1 0.464838 0.117945 0.0981695
17933 1 0.45078 0.448221 0.12252
17934 1 0.478903 0.787305 0.122572
17938 1 0.464838 0.617945 0.0981695
17939 1 0.45078 0.948221 0.12252
17940 1 0.478903 0.287305 0.122572
17941 1 0.49297 0.456927 0.0982741
17947 1 0.49297 0.956927 0.0982741
18438 3 0.141124 0.726256 0.170988
18444 3 0.141124 0.226257 0.170988
18445 3 0.155198 0.397297 0.146617
18446 3 0.183345 0.733989 0.146617
18447 3 0.169271 0.0628205 0.170988
18451 3 0.155198 0.897297 0.146617
18452 3 0.183345 0.23399 0.146617
18453 3 0.169271 0.56282 0.170988
18448 1 0.211453 0.0700057 0.146699
18449 1 0.197607 0.40034 0.171252
18450 1 0.225682 0.737034 0.171205
18454 1 0.211453 0.570006 0.146699
18455 1 0.197607 0.90034 0.171252
18456 1 0.225682 0.237034 0.171205
18457 1 0.239781 0.408519 0.146898
18459 1 0.253801 0.0747686 0.171188
18463 1 0.239781 0.908519 0.146898
18465 1 0.253801 0.574769 0.171188
18458 1 0.267903 0.74636 0.146862
18460 1 0.296063 0.08446 0.146866
18461 1 0.281953 0.412762 0.171192
18462 1 0.310098 0.751071 0.171188
18464 1 0.267903 0.24636 0.146862
18466 1 0.296063 0.58446 0.146866
18467 1 0.281953 0.912762 0.171192
18468 1 0.310098 0.251071 0.171188
18469 1 0.324196 0.422594 0.146842
18470 1 0.352324 0.761062 0.146841
18471 1 0.338235 0.089594 0.171187
18472 1 0.380458 0.0998423 0.146856
18473 1 0.366372 0.428487 0.1712
18475 1 0.324196 0.922594 0.146842
18476 1 0.352324 0.261062 0.146841
18477 1 0.338235 0.589594 0.171187
18478 1 0.380458 0.599842 0.146856
18479 1 0.366372 0.928487 0.1712
18474 1 0.394509 0.767761 0.17122
18480 1 0.394509 0.267761 0.17122
18481 1 0.408592 0.438883 0.146869
18482 1 0.436718 0.778058 0.146883
18483 1 0.422644 0.107318 0.17124
18487 1 0.408592 0.938883 0.146869
18488 1 0.436718 0.278058 0.146883
18489 1 0.422644 0.607318 0.17124
18484 1 0.464842 0.117428 0.146911
18485 1 0.450776 0.447093 0.171262
18486 1 0.478913 0.787099 0.171283
18490 1 0.464842 0.617428 0.146911
18491 1 0.450776 0.947093 0.171262
18492 1 0.478913 0.287099 0.171283
18493 1 0.492981 0.457069 0.146936
18499 1 0.492981 0.957069 0.146936
18987 3 0.0848298 0.0479006 0.219731
18988 3 0.127051 0.0551026 0.19536
18989 3 0.112977 0.38386 0.219731
18993 3 0.0848298 0.5479 0.219731
18994 3 0.127051 0.555102 0.19536
18995 3 0.112977 0.883861 0.219731
19537 3 0.0707563 0.376804 0.244102
19538 3 0.0989034 0.712559 0.244102
19540 1 0.12725 0.0493441 0.244347
19543 3 0.0707563 0.876805 0.244102
19544 3 0.0989034 0.21256 0.244102
19546 1 0.12725 0.549344 0.244347
18990 1 0.141091 0.719751 0.219844
18996 1 0.141091 0.219751 0.219844
18997 3 0.155198 0.391508 0.19536
18998 1 0.183532 0.728513 0.195642
18999 1 0.16932 0.0567517 0.219883
19003 3 0.155198 0.891508 0.19536
19004 1 0.183532 0.228513 0.195642
19005 1 0.16932 0.556752 0.219883
19549 1 0.155326 0.385211 0.244279
19550 1 0.183405 0.721695 0.244209
19555 1 0.155326 0.885211 0.244279
19556 1 0.183405 0.221695 0.244209
19000 1 0.211616 0.0656925 0.195576
19001 1 0.197478 0.393909 0.2199
19002 1 0.225634 0.731095 0.219884
19006 1 0.211616 0.565692 0.195576
19007 1 0.197478 0.893909 0.2199
19008 1 0.225634 0.231095 0.219884
19009 1 0.239727 0.402974 0.195531
19011 1 0.253764 0.0686258 0.219858
19015 1 0.239727 0.902974 0.195531
19017 1 0.253764 0.568626 0.219858
19552 1 0.211543 0.0588186 0.24421
19558 1 0.211543 0.558819 0.24421
19561 1 0.239674 0.396185 0.244197
19567 1 0.239674 0.896185 0.244197
19010 1 0.267857 0.740804 0.19552
19012 1 0.295997 0.0790214 0.195519
19013 1 0.281901 0.406646 0.219852
19014 1 0.310041 0.745183 0.219858
19016 1 0.267857 0.240804 0.19552
19018 1 0.295997 0.579021 0.195519
19019 1 0.281901 0.906646 0.219852
19020 1 0.310041 0.245183 0.219858
19562 1 0.267807 0.733984 0.244188
19564 1 0.295942 0.0723389 0.244188
19568 1 0.267807 0.233984 0.244188
19570 1 0.295942 0.572339 0.244188
19021 1 0.32414 0.417622 0.195527
19022 1 0.352281 0.756632 0.19554
19023 1 0.338184 0.0842328 0.219871
19024 1 0.380421 0.0960893 0.19556
19025 1 0.366328 0.423811 0.219893
19027 1 0.32414 0.917622 0.195527
19028 1 0.352281 0.256632 0.19554
19029 1 0.338184 0.584233 0.219871
19030 1 0.380421 0.596089 0.19556
19031 1 0.366328 0.923811 0.219893
19573 1 0.324083 0.411303 0.244198
19574 1 0.352228 0.750899 0.244218
19576 1 0.380376 0.0911475 0.244246
19579 1 0.324083 0.911303 0.244198
19580 1 0.352228 0.250899 0.244218
19582 1 0.380376 0.591147 0.244246
19026 1 0.394473 0.763919 0.219921
19032 1 0.394473 0.263919 0.219921
19033 1 0.408562 0.435955 0.195585
19034 1 0.436702 0.776148 0.19561
19035 1 0.42262 0.104492 0.21995
19039 1 0.408562 0.935955 0.195585
19040 1 0.436702 0.276148 0.19561
19041 1 0.42262 0.604492 0.21995
19585 1 0.408528 0.43203 0.24428
19586 1 0.436681 0.773467 0.244312
19591 1 0.408528 0.93203 0.24428
19592 1 0.436681 0.273467 0.244312
19036 1 0.464842 0.116617 0.195631
19037 1 0.450766 0.445454 0.219976
19038 1 0.478914 0.786692 0.219992
19042 1 0.464842 0.616617 0.195631
19043 1 0.450766 0.945454 0.219976
19044 1 0.478914 0.286692 0.219992
19588 1 0.464834 0.115336 0.244336
19594 1 0.464834 0.615336 0.244336
19045 1 0.492987 0.457274 0.195641
19051 1 0.492987 0.957274 0.195641
19597 1 0.492989 0.457446 0.244345
19603 1 0.492989 0.957446 0.244345
19530 3 0.0566827 0.705697 0.268473
19536 3 0.0566827 0.205698 0.268473
20080 3 0.0426091 0.0346068 0.292845
20086 3 0.0426091 0.534606 0.292845
19539 3 0.0848298 0.0412297 0.268473
19541 1 0.113231 0.377272 0.26871
19545 3 0.0848298 0.541229 0.268473
19547 1 0.113231 0.877272 0.26871
20089 3 0.0707563 0.369902 0.292845
20090 1 0.099235 0.705191 0.292946
20092 1 0.127269 0.0412366 0.292971
20095 3 0.0707563 0.869902 0.292845
20096 1 0.099235 0.205191 0.292946
20098 1 0.127269 0.541237 0.292971
19542 1 0.141309 0.713489 0.268643
19548 1 0.141309 0.213489 0.268643
19551 1 0.169393 0.0496759 0.268584
19557 1 0.169393 0.549676 0.268584
20101 1 0.155359 0.377428 0.292955
20102 1 0.183438 0.71382 0.292915
20107 1 0.155359 0.877428 0.292955
20108 1 0.183438 0.21382 0.292915
19553 1 0.197483 0.3863 0.268548
19554 1 0.225597 0.72344 0.268536
19559 1 0.197483 0.8863 0.268548
19560 1 0.225597 0.22344 0.268536
19563 1 0.253719 0.0610196 0.268526
19569 1 0.253719 0.56102 0.268526
20104 1 0.211532 0.0505771 0.292888
20110 1 0.211532 0.550577 0.292888
20113 1 0.239638 0.387841 0.292871
20119 1 0.239638 0.887841 0.292871
19565 1 0.281846 0.399135 0.26852
19566 1 0.30998 0.737892 0.268524
19571 1 0.281846 0.899135 0.26852
19572 1 0.30998 0.237892 0.268524
20114 1 0.267754 0.725636 0.292859
20116 1 0.295878 0.0640776 0.292854
20120 1 0.267754 0.225636 0.292859
20122 1 0.295878 0.564078 0.292854
19575 1 0.338121 0.0773668 0.268538
19577 1 0.36627 0.417616 0.268564
19581 1 0.338121 0.577367 0.268538
19583 1 0.36627 0.917616 0.268564
20134 1 0.380311 0.584392 0.292908
20125 1 0.324012 0.403271 0.29286
20126 1 0.352156 0.743339 0.292877
20128 1 0.380311 0.0843922 0.292908
20131 1 0.324012 0.903271 0.29286
20132 1 0.352156 0.243339 0.292877
20144 1 0.436644 0.269532 0.292991
20143 1 0.408474 0.926474 0.292949
19578 1 0.394425 0.758677 0.268598
19584 1 0.394425 0.258677 0.268598
20138 1 0.436644 0.769532 0.292991
20137 1 0.408474 0.426474 0.292949
19587 1 0.422585 0.100519 0.268637
19593 1 0.422585 0.600519 0.268637
20146 1 0.464817 0.613365 0.293024
20140 1 0.464817 0.113365 0.293024
19589 1 0.450746 0.443022 0.268671
19590 1 0.478909 0.785975 0.26869
19595 1 0.450746 0.943022 0.268671
19596 1 0.478909 0.285975 0.26869
20149 1 0.492991 0.457627 0.293035
20155 1 0.492991 0.957627 0.293035
20640 3 0.0566827 0.190945 0.365958
20639 3 0.0285356 0.856248 0.365958
20638 3 0.0426091 0.527383 0.341587
20634 3 0.0566827 0.690945 0.365958
20633 3 0.0285356 0.356248 0.365958
20632 3 0.0426091 0.0273831 0.341587
20082 3 0.0566827 0.69861 0.317216
20088 3 0.0566827 0.198611 0.317216
20651 1 0.113098 0.860802 0.365958
20650 1 0.127206 0.532816 0.341638
20649 1 0.0849848 0.525728 0.365925
20648 1 0.0991191 0.197268 0.34161
20647 1 0.0708369 0.862723 0.341501
20645 1 0.113098 0.360802 0.365958
20644 1 0.127206 0.0328164 0.341638
20643 1 0.0849848 0.0257282 0.365925
20642 1 0.0991191 0.697268 0.34161
20641 1 0.0708369 0.362723 0.341501
20091 1 0.0851412 0.0331245 0.317266
20093 1 0.113216 0.368984 0.317292
20097 1 0.0851412 0.533124 0.317266
20099 1 0.113216 0.868984 0.317292
20661 1 0.169325 0.53195 0.365976
20660 1 0.183399 0.204823 0.341618
20659 1 0.155303 0.86869 0.341636
20655 1 0.169325 0.0319498 0.365976
20654 1 0.183399 0.704823 0.341618
20653 1 0.155303 0.36869 0.341636
20652 1 0.141218 0.196215 0.36598
20646 1 0.141218 0.696215 0.36598
20094 1 0.141299 0.705063 0.317302
20100 1 0.141299 0.205063 0.317302
20103 1 0.169379 0.0412552 0.31728
20109 1 0.169379 0.541255 0.31728
20673 1 0.253612 0.541308 0.365906
20671 1 0.239589 0.878188 0.341567
20667 1 0.253612 0.0413081 0.365906
20665 1 0.239589 0.378188 0.341567
20664 1 0.225517 0.204386 0.365933
20663 1 0.197423 0.867977 0.365958
20662 1 0.211493 0.541273 0.341592
20658 1 0.225517 0.704386 0.365933
20657 1 0.197423 0.367977 0.365958
20656 1 0.211493 0.0412733 0.341592
20105 1 0.197469 0.377704 0.317253
20106 1 0.225564 0.714568 0.317228
20111 1 0.197469 0.877704 0.317253
20112 1 0.225564 0.214568 0.317228
20115 1 0.253668 0.0519575 0.317207
20121 1 0.253668 0.551957 0.317207
20676 1 0.309816 0.21724 0.365861
20675 1 0.28171 0.878863 0.365882
20674 1 0.2958 0.553884 0.341527
20672 1 0.267691 0.215681 0.341544
20670 1 0.309816 0.71724 0.365861
20669 1 0.28171 0.378863 0.365882
20668 1 0.2958 0.0538842 0.341527
20666 1 0.267691 0.715681 0.341544
20117 1 0.28178 0.389968 0.317193
20118 1 0.309903 0.728735 0.317187
20123 1 0.28178 0.889968 0.317193
20124 1 0.309903 0.228735 0.317187
20687 1 0.366069 0.897554 0.36585
20686 1 0.380211 0.574871 0.341546
20685 1 0.337933 0.556692 0.365849
20684 1 0.352057 0.233221 0.341524
20683 1 0.323921 0.892986 0.341519
20681 1 0.366069 0.397554 0.36585
20680 1 0.380211 0.0748707 0.341546
20679 1 0.337933 0.0566919 0.365849
20678 1 0.352057 0.733221 0.341524
20677 1 0.323921 0.392986 0.341519
20135 1 0.366186 0.909196 0.317214
20133 1 0.338038 0.568412 0.317193
20127 1 0.338038 0.0684118 0.317193
20129 1 0.366186 0.409196 0.317214
20697 1 0.42242 0.58529 0.365914
20696 1 0.436578 0.263346 0.341637
20695 1 0.408385 0.918204 0.341586
20691 1 0.42242 0.0852899 0.365914
20690 1 0.436578 0.763346 0.341637
20689 1 0.408385 0.418204 0.341586
20688 1 0.39423 0.240265 0.365871
20682 1 0.39423 0.740265 0.365871
20145 1 0.422525 0.594644 0.317296
20139 1 0.422525 0.0946434 0.317296
20136 1 0.394349 0.25125 0.31725
20130 1 0.394349 0.75125 0.31725
20700 1 0.47887 0.282626 0.366013
20699 1 0.450637 0.932896 0.365972
20698 1 0.464782 0.610094 0.341683
20694 1 0.47887 0.782625 0.366013
20693 1 0.450637 0.432895 0.365972
20692 1 0.464782 0.110094 0.341683
20148 1 0.478896 0.284796 0.317369
20147 1 0.450708 0.939276 0.317341
20142 1 0.478896 0.784796 0.317369
20141 1 0.450708 0.439276 0.317341
20707 1 0.49299 0.957807 0.3417
20701 1 0.49299 0.457808 0.3417
21742 1 0.0426592 0.512518 0.438997
21740 3 0.014462 0.177546 0.439072
21736 1 0.0426592 0.0125178 0.438997
21734 3 0.014462 0.677546 0.439072
21192 1 0.0570039 0.182161 0.414731
21191 3 0.0285356 0.848518 0.414701
21190 3 0.0426091 0.519658 0.390329
21188 3 0.014462 0.185232 0.390329
21186 1 0.0570039 0.682161 0.414731
21185 3 0.0285356 0.348518 0.414701
21184 3 0.0426091 0.0196582 0.390329
21182 3 0.014462 0.685231 0.390329
21754 1 0.127181 0.513922 0.439055
21752 1 0.0990925 0.179568 0.439062
21751 1 0.0709993 0.845497 0.439063
21748 1 0.127181 0.0139221 0.439055
21746 1 0.0990925 0.679568 0.439062
21745 1 0.0709993 0.345497 0.439063
21203 1 0.11314 0.851428 0.414685
21202 1 0.127166 0.523698 0.390321
21201 1 0.0850766 0.516819 0.4147
21200 1 0.0990776 0.18859 0.390297
21199 1 0.071093 0.853969 0.39035
21197 1 0.11314 0.351428 0.414685
21196 1 0.127166 0.023698 0.390321
21195 1 0.0850766 0.016819 0.4147
21194 1 0.0990776 0.68859 0.390297
21193 1 0.071093 0.353969 0.39035
21764 1 0.18337 0.183442 0.439044
21763 1 0.155275 0.848574 0.439052
21758 1 0.18337 0.683442 0.439044
21757 1 0.155275 0.348574 0.439052
21213 1 0.169314 0.521529 0.414685
21212 1 0.183362 0.194704 0.390322
21211 1 0.155263 0.859092 0.390329
21207 1 0.169314 0.0215294 0.414685
21206 1 0.183362 0.694704 0.390322
21205 1 0.155263 0.359092 0.390329
21204 1 0.141219 0.18635 0.414687
21198 1 0.141219 0.68635 0.414687
21775 1 0.23955 0.853926 0.439006
21769 1 0.23955 0.353926 0.439006
21766 1 0.211462 0.518538 0.439028
21760 1 0.211462 0.0185381 0.439028
21225 1 0.253585 0.528773 0.414626
21223 1 0.239547 0.866935 0.390277
21219 1 0.253585 0.0287725 0.414626
21217 1 0.239547 0.366935 0.390277
21216 1 0.225498 0.192648 0.414652
21215 1 0.197407 0.856937 0.414673
21214 1 0.211456 0.530617 0.390303
21210 1 0.225498 0.692648 0.414652
21209 1 0.197407 0.356937 0.414673
21208 1 0.211456 0.0306172 0.390303
21778 1 0.295715 0.526061 0.438949
21776 1 0.267635 0.189716 0.43898
21772 1 0.295715 0.0260611 0.438949
21770 1 0.267635 0.689716 0.43898
21228 1 0.309755 0.202903 0.414564
21227 1 0.28167 0.865462 0.414596
21226 1 0.29573 0.541353 0.390221
21224 1 0.267638 0.203797 0.390249
21222 1 0.309755 0.702903 0.414564
21221 1 0.28167 0.365462 0.414596
21220 1 0.29573 0.0413533 0.390221
21218 1 0.267638 0.703797 0.390249
21790 1 0.379947 0.541475 0.438837
21788 1 0.351867 0.201471 0.438877
21787 1 0.323792 0.863189 0.438915
21784 1 0.379947 0.0414755 0.438837
21782 1 0.351867 0.701471 0.438877
21781 1 0.323792 0.363189 0.438915
21239 1 0.365944 0.881404 0.414504
21238 1 0.380073 0.561159 0.39017
21237 1 0.337844 0.541404 0.414533
21236 1 0.351941 0.21962 0.390176
21235 1 0.323829 0.879849 0.390195
21233 1 0.365944 0.381404 0.414504
21232 1 0.380073 0.061159 0.39017
21231 1 0.337844 0.0414036 0.414533
21230 1 0.351941 0.71962 0.390176
21229 1 0.323829 0.379849 0.390195
21800 1 0.436197 0.23199 0.438751
21799 1 0.408047 0.884198 0.438796
21794 1 0.436197 0.731991 0.438751
21793 1 0.408047 0.384199 0.438796
21249 1 0.422234 0.569265 0.414483
21248 1 0.436452 0.252597 0.39023
21247 1 0.40824 0.905165 0.390185
21243 1 0.422234 0.0692644 0.414483
21242 1 0.436452 0.752597 0.39023
21241 1 0.40824 0.405165 0.390185
21240 1 0.394067 0.223612 0.414484
21234 1 0.394067 0.723612 0.414484
21802 1 0.464511 0.589659 0.43879
21796 1 0.464511 0.0896605 0.43879
21252 1 0.478812 0.27795 0.414594
21251 1 0.45048 0.920437 0.414525
21250 1 0.46471 0.603959 0.390293
21246 1 0.478812 0.777949 0.414594
21245 1 0.45048 0.420437 0.414525
21244 1 0.46471 0.10396 0.390293
21811 1 0.492985 0.958166 0.438877
21805 1 0.492985 0.458167 0.438877
21259 1 0.492988 0.957997 0.39032
21253 1 0.492988 0.457998 0.39032
21744 1 0.0569945 0.174025 0.463423
21743 3 0.0285356 0.840488 0.463443
21741 3 0.00038843 0.506754 0.463443
21738 1 0.0569945 0.674025 0.463423
21737 3 0.0285356 0.340487 0.463443
21735 3 0.00038843 0.00675497 0.463443
22286 3 0.014462 0.669651 0.487814
22288 1 0.0429023 0.00257525 0.487862
22292 3 0.014462 0.169652 0.487814
22294 1 0.0429023 0.502575 0.487862
21755 1 0.113145 0.841761 0.463424
21753 1 0.0850436 0.507788 0.463418
21749 1 0.113145 0.341761 0.463424
21747 1 0.0850436 0.00778824 0.463418
22297 1 0.0710225 0.336204 0.487789
22298 1 0.0991203 0.669807 0.487791
22300 1 0.127212 0.00355112 0.487792
22303 1 0.0710225 0.836204 0.487789
22304 1 0.0991203 0.169807 0.487791
22306 1 0.127212 0.503551 0.487792
21765 1 0.169339 0.510244 0.463415
21759 1 0.169339 0.0102438 0.463415
21756 1 0.141242 0.175921 0.463422
21750 1 0.141242 0.675921 0.463422
22309 1 0.155313 0.3374 0.487787
22310 1 0.183414 0.671313 0.487778
22315 1 0.155313 0.8374 0.487787
22316 1 0.183414 0.171313 0.487778
21777 1 0.253619 0.514294 0.463365
21771 1 0.253619 0.0142944 0.463365
21768 1 0.22553 0.179389 0.463387
21767 1 0.197436 0.844724 0.463403
21762 1 0.22553 0.679389 0.463387
21761 1 0.197436 0.344724 0.463403
22312 1 0.211514 0.0052912 0.487765
22318 1 0.211514 0.505291 0.487765
22321 1 0.239612 0.339368 0.487748
22327 1 0.239612 0.839368 0.487748
21780 1 0.309781 0.185262 0.46331
21779 1 0.281703 0.849537 0.463339
21774 1 0.309781 0.685262 0.46331
21773 1 0.281703 0.349537 0.463339
22322 1 0.267706 0.673567 0.487728
22324 1 0.295795 0.00795191 0.487706
22328 1 0.267706 0.173566 0.487728
22330 1 0.295795 0.507952 0.487706
21791 1 0.365909 0.859347 0.463236
21789 1 0.337849 0.521726 0.463277
21785 1 0.365909 0.359347 0.463236
21783 1 0.337849 0.0217255 0.463277
22333 1 0.323875 0.342629 0.487683
22334 1 0.351943 0.677804 0.487656
22336 1 0.379989 0.0137841 0.487623
22339 1 0.323875 0.842629 0.487682
22340 1 0.351943 0.177805 0.487656
22342 1 0.379989 0.513783 0.487623
21801 1 0.422006 0.541555 0.463114
21795 1 0.422006 0.0415547 0.463114
21792 1 0.39396 0.198835 0.463186
21786 1 0.39396 0.698834 0.463186
22345 1 0.407994 0.351133 0.48758
22346 1 0.43596 0.691135 0.487515
22351 1 0.407994 0.851134 0.48758
22352 1 0.43596 0.191134 0.487514
21804 1 0.47861 0.262622 0.463069
21803 1 0.450122 0.892058 0.462995
21798 1 0.47861 0.762622 0.463069
21797 1 0.450122 0.392056 0.462995
22348 1 0.464013 0.0416128 0.487359
22354 1 0.464013 0.541613 0.487359
22357 1 0.49298 0.458295 0.487411
22363 1 0.49298 0.958295 0.48741
22287 3 0.00038843 0.999033 0.512186
22289 3 0.0285356 0.332308 0.512186
22290 1 0.0570712 0.664918 0.512173
22293 3 0.00038843 0.499033 0.512186
22295 3 0.0285356 0.832309 0.512186
22296 1 0.0570712 0.164918 0.512173
22838 3 0.014462 0.661697 0.536557
22839 3 0.00038843 0.99133 0.560928
22840 1 0.0429059 0.99401 0.536487
22841 3 0.0285356 0.324151 0.560928
22842 1 0.0570037 0.656318 0.560911
22844 3 0.014462 0.161698 0.536557
22845 3 0.00038843 0.491329 0.560928
22846 1 0.0429059 0.49401 0.536487
22847 3 0.0285356 0.824152 0.560928
22848 1 0.0570037 0.156318 0.560911
22299 1 0.0851031 0.998105 0.512168
22301 1 0.113185 0.3315 0.512165
22305 1 0.0851031 0.498105 0.512168
22307 1 0.113185 0.8315 0.512165
22849 1 0.0710361 0.327031 0.536551
22850 1 0.0991425 0.659975 0.536542
22851 1 0.0850707 0.988865 0.560915
22852 1 0.127246 0.992986 0.536532
22853 1 0.113197 0.321517 0.560901
22855 1 0.0710361 0.827031 0.536551
22856 1 0.0991425 0.159975 0.536542
22857 1 0.0850707 0.488865 0.560915
22858 1 0.127246 0.492986 0.536532
22859 1 0.113197 0.821517 0.560901
22302 1 0.141285 0.664961 0.512159
22308 1 0.141285 0.164961 0.512159
22311 1 0.16939 0.998378 0.512151
22317 1 0.16939 0.498378 0.512151
22854 1 0.141317 0.65411 0.560892
22860 1 0.141317 0.15411 0.560892
22861 1 0.155359 0.325973 0.536523
22862 1 0.183473 0.658832 0.536512
22863 1 0.169439 0.986545 0.560882
22867 1 0.155359 0.825973 0.536523
22868 1 0.183473 0.158832 0.536512
22869 1 0.169439 0.486545 0.560882
22313 1 0.197498 0.331754 0.51214
22314 1 0.225605 0.665088 0.512127
22319 1 0.197498 0.831754 0.51214
22320 1 0.225605 0.165088 0.512127
22323 1 0.253711 0.998374 0.512112
22329 1 0.253711 0.498374 0.512112
22864 1 0.211589 0.991552 0.536501
22865 1 0.197561 0.318773 0.560872
22866 1 0.225685 0.650734 0.560861
22870 1 0.211589 0.491552 0.536501
22871 1 0.197561 0.818773 0.560872
22872 1 0.225685 0.150734 0.560861
22873 1 0.239705 0.324087 0.536489
22875 1 0.253811 0.982328 0.560852
22879 1 0.239705 0.824087 0.536489
22881 1 0.253811 0.482328 0.560852
22325 1 0.281814 0.331585 0.512096
22326 1 0.309912 0.664702 0.512081
22331 1 0.281814 0.831584 0.512096
22332 1 0.309912 0.164703 0.512081
22874 1 0.267822 0.656368 0.536477
22876 1 0.295937 0.988281 0.536468
22877 1 0.281938 0.313409 0.560845
22878 1 0.310063 0.643762 0.560846
22880 1 0.267822 0.156368 0.536477
22882 1 0.295937 0.488281 0.536468
22883 1 0.281938 0.813409 0.560845
22884 1 0.310063 0.143762 0.560846
22335 1 0.338005 0.997697 0.512068
22337 1 0.366086 0.330471 0.512059
22341 1 0.338005 0.497697 0.512068
22343 1 0.366086 0.830472 0.512059
22885 1 0.32405 0.319666 0.536463
22886 1 0.35216 0.650207 0.536468
22887 1 0.338188 0.973042 0.560858
22888 1 0.380267 0.979228 0.536491
22889 1 0.36631 0.300606 0.56089
22891 1 0.32405 0.819667 0.536463
22892 1 0.35216 0.150207 0.536468
22893 1 0.338188 0.473043 0.560858
22894 1 0.380267 0.479229 0.536491
22895 1 0.36631 0.800606 0.56089
22338 1 0.394147 0.662715 0.512057
22344 1 0.394147 0.162715 0.512057
22347 1 0.422184 0.99357 0.512073
22353 1 0.422184 0.493571 0.512073
22890 1 0.394427 0.625323 0.560959
22896 1 0.394427 0.125323 0.560959
22897 1 0.40837 0.305326 0.53655
22898 1 0.436494 0.62519 0.536679
22899 1 0.422542 0.945182 0.561094
22903 1 0.40837 0.805325 0.53655
22904 1 0.436494 0.125192 0.536679
22905 1 0.422542 0.445182 0.561094
22349 1 0.450267 0.320672 0.51214
22350 1 0.47854 0.625076 0.512412
22355 1 0.450267 0.820671 0.51214
22356 1 0.47854 0.125076 0.512412
22900 1 0.464637 0.929603 0.537026
22901 1 0.450652 0.256814 0.561375
22902 1 0.478813 0.559138 0.561729
22906 1 0.464636 0.429601 0.537026
22907 1 0.450652 0.756814 0.561375
22908 1 0.478813 0.0591396 0.561729
22909 1 0.492975 0.208568 0.537518
22915 1 0.492975 0.708571 0.537518
23390 3 0.014462 0.653842 0.585299
23392 3 0.0426091 0.986404 0.585299
23393 3 0.0285356 0.316183 0.609671
23394 1 0.0570012 0.647298 0.609591
23396 3 0.014462 0.153842 0.585299
23398 3 0.0426091 0.486403 0.585299
23399 3 0.0285356 0.816183 0.609671
23400 1 0.0570012 0.147298 0.609591
23401 1 0.0710058 0.318263 0.585263
23402 1 0.0991419 0.650528 0.585258
23403 1 0.0851123 0.979769 0.609614
23404 1 0.127267 0.982749 0.585258
23405 1 0.113222 0.311855 0.609621
23407 1 0.0710058 0.818263 0.585263
23408 1 0.0991419 0.150528 0.585258
23409 1 0.0851123 0.479769 0.609614
23410 1 0.127267 0.482749 0.585258
23411 1 0.113222 0.811855 0.609621
23406 1 0.141335 0.643721 0.60962
23412 1 0.141335 0.143721 0.60962
23413 1 0.155393 0.314862 0.585251
23414 1 0.18352 0.646722 0.585241
23415 1 0.169465 0.975336 0.60961
23419 1 0.155393 0.814862 0.585251
23420 1 0.18352 0.146722 0.585241
23421 1 0.169465 0.475336 0.60961
23416 1 0.21165 0.978268 0.58523
23417 1 0.197598 0.306595 0.609598
23418 1 0.225734 0.637406 0.609588
23422 1 0.21165 0.478268 0.58523
23423 1 0.197598 0.806595 0.609598
23424 1 0.225734 0.137406 0.609588
23425 1 0.239782 0.309387 0.585221
23427 1 0.253871 0.967645 0.609583
23431 1 0.239782 0.809387 0.585221
23433 1 0.253871 0.467645 0.609583
23426 1 0.267914 0.63994 0.585216
23428 1 0.296047 0.969704 0.58522
23429 1 0.282007 0.297125 0.609587
23430 1 0.310141 0.625588 0.609603
23432 1 0.267914 0.13994 0.585216
23434 1 0.296047 0.469704 0.58522
23435 1 0.282007 0.797125 0.609587
23436 1 0.310141 0.125588 0.609603
23437 1 0.324178 0.298376 0.585234
23438 1 0.352305 0.62546 0.585269
23439 1 0.33827 0.952675 0.609637
23440 1 0.380426 0.950179 0.585337
23441 1 0.366392 0.277878 0.609699
23443 1 0.324178 0.798376 0.585234
23444 1 0.352305 0.12546 0.585269
23445 1 0.33827 0.452675 0.609637
23446 1 0.380426 0.450179 0.585337
23447 1 0.366392 0.777878 0.609699
23442 1 0.394505 0.60058 0.6098
23448 1 0.394505 0.10058 0.6098
23449 1 0.40854 0.271417 0.585455
23450 1 0.436646 0.587798 0.585657
23451 1 0.422612 0.920181 0.609951
23455 1 0.40854 0.771418 0.585455
23456 1 0.436646 0.0877961 0.585657
23457 1 0.422612 0.42018 0.609951
23452 1 0.464772 0.899255 0.585909
23453 1 0.45073 0.236737 0.610134
23454 1 0.478883 0.551556 0.61026
23458 1 0.464772 0.399257 0.585909
23459 1 0.45073 0.736738 0.610134
23460 1 0.478883 0.0515538 0.61026
23461 1 0.492971 0.208716 0.586012
23467 1 0.49297 0.708712 0.586012
23942 3 0.014462 0.64623 0.634042
23944 3 0.0426091 0.97837 0.634042
23945 3 0.0285356 0.308548 0.658413
23946 3 0.0566827 0.640422 0.658413
23948 3 0.014462 0.14623 0.634042
23950 3 0.0426091 0.478369 0.634042
23951 3 0.0285356 0.808548 0.658413
23952 3 0.0566827 0.140423 0.658413
24496 3 0.0426091 0.970762 0.682784
24502 3 0.0426091 0.470761 0.682784
23953 1 0.0711077 0.309777 0.633965
23954 1 0.099143 0.641501 0.633995
23955 1 0.0850366 0.971941 0.65834
23956 1 0.127265 0.973165 0.633988
23957 1 0.113157 0.30325 0.658356
23959 1 0.0711077 0.809777 0.633965
23960 1 0.099143 0.141501 0.633995
23961 1 0.0850366 0.471941 0.65834
23962 1 0.127265 0.473165 0.633988
23963 1 0.113157 0.80325 0.658356
24505 3 0.0707563 0.302367 0.682784
24506 1 0.0990926 0.633644 0.682689
24508 1 0.127212 0.964666 0.682705
24511 3 0.0707563 0.802368 0.682784
24512 1 0.0990926 0.133644 0.682689
24514 1 0.127212 0.464666 0.682705
23958 1 0.141307 0.634398 0.658343
23964 1 0.141307 0.134398 0.658343
23965 1 0.155393 0.30457 0.633979
23966 1 0.183531 0.635628 0.633965
23967 1 0.16945 0.965282 0.658331
23971 1 0.155393 0.80457 0.633979
23972 1 0.183531 0.135628 0.633965
23973 1 0.16945 0.465282 0.658331
24517 1 0.155365 0.295428 0.682693
24518 1 0.183512 0.625868 0.682681
24523 1 0.155365 0.795428 0.682693
24524 1 0.183512 0.125868 0.682681
23968 1 0.211671 0.966248 0.633954
23969 1 0.197596 0.295784 0.658318
23970 1 0.22574 0.625787 0.65831
23974 1 0.211671 0.466248 0.633954
23975 1 0.197596 0.795784 0.658318
23976 1 0.22574 0.125787 0.65831
23977 1 0.239812 0.296321 0.633948
23979 1 0.253882 0.955163 0.658311
23983 1 0.239812 0.796321 0.633948
23985 1 0.253882 0.455163 0.658311
24520 1 0.211661 0.955876 0.68267
24526 1 0.211661 0.455876 0.68267
24529 1 0.239806 0.285324 0.682669
24535 1 0.239806 0.785324 0.682669
23978 1 0.26795 0.625697 0.633951
23980 1 0.296086 0.954166 0.633966
23981 1 0.282019 0.283746 0.658325
23982 1 0.31015 0.611353 0.658353
23984 1 0.26795 0.125697 0.633951
23986 1 0.296086 0.454166 0.633966
23987 1 0.282019 0.783746 0.658325
23988 1 0.31015 0.111353 0.658353
24530 1 0.267945 0.614073 0.68268
24532 1 0.296078 0.941998 0.682705
24536 1 0.267945 0.114073 0.68268
24538 1 0.296078 0.441998 0.682705
23989 1 0.324216 0.281474 0.633998
23990 1 0.352338 0.607289 0.634053
23991 1 0.338274 0.93777 0.658402
23992 1 0.380453 0.931257 0.634139
23993 1 0.366391 0.262777 0.658476
23995 1 0.324216 0.781474 0.633998
23996 1 0.352338 0.107289 0.634053
23997 1 0.338274 0.43777 0.658402
23998 1 0.380453 0.431258 0.634139
23999 1 0.366391 0.762777 0.658476
24541 1 0.324205 0.268955 0.682748
24542 1 0.352325 0.594811 0.68281
24544 1 0.380441 0.919479 0.682891
24547 1 0.324205 0.768955 0.682748
24548 1 0.352325 0.0948109 0.68281
24550 1 0.380441 0.419479 0.682891
23994 1 0.394504 0.586231 0.658573
24000 1 0.394504 0.0862306 0.658573
24001 1 0.408562 0.253095 0.634259
24002 1 0.436677 0.572855 0.6344
24003 1 0.42262 0.908172 0.658687
24007 1 0.408562 0.753095 0.634259
24008 1 0.436677 0.0728563 0.6344
24009 1 0.42262 0.408172 0.658687
24553 1 0.408558 0.242988 0.682987
24554 1 0.436683 0.565541 0.683081
24559 1 0.408558 0.742988 0.682987
24560 1 0.436683 0.0655401 0.683081
24562 1 0.464819 0.387472 0.683152
24004 1 0.464813 0.89118 0.634521
24005 1 0.450747 0.228939 0.658795
24006 1 0.47889 0.549052 0.658862