ITEM: TIMESTEP
43
ITEM: NUMBER OF ATOMS
2356
ITEM: BOX BOUNDS ss pp ss
-4.1554853657999999e+01 4.1263454361000001e+01
-4.1208122699999999e-01 4.5329187729999996e+00
-4.1165155220999999e+01 4.1669830331000000e+01
ITEM: ATOMS id type xs ys zs
17354 3 0.267786 0.75336 0.0491324
17356 3 0.295933 0.090723 0.0491324
17360 3 0.267786 0.253361 0.0491324
17362 3 0.295933 0.590722 0.0491324
16815 3 0.338154 0.0984637 0.0247612
16817 3 0.366301 0.436106 0.0247612
16821 3 0.338154 0.598463 0.0247612
16823 3 0.366301 0.936107 0.0247612
17365 3 0.32408 0.428281 0.0491324
17366 3 0.352228 0.766026 0.0491324
17368 1 0.380458 0.103598 0.0491659
17371 3 0.32408 0.928282 0.0491324
17372 3 0.352228 0.266027 0.0491324
17374 1 0.380458 0.603598 0.0491659
16818 3 0.394448 0.773888 0.0247612
16824 3 0.394448 0.273888 0.0247612
16825 3 0.408522 0.443566 0.00038994
16826 3 0.436669 0.781297 0.00038994
16827 3 0.422595 0.111785 0.0247612
16831 3 0.408522 0.943567 0.00038994
16832 3 0.436669 0.281298 0.00038994
16833 3 0.422595 0.611784 0.0247612
17377 1 0.408648 0.443154 0.0494605
17378 1 0.436791 0.78081 0.0494825
17383 1 0.408648 0.943154 0.0494605
17384 1 0.436791 0.28081 0.0494825
16828 3 0.464816 0.119092 0.00038994
16829 3 0.450743 0.44977 0.0247612
16830 3 0.47889 0.787817 0.0247612
16834 3 0.464816 0.619092 0.00038994
16835 3 0.450743 0.949771 0.0247612
16836 3 0.47889 0.287817 0.0247612
17380 1 0.464855 0.118666 0.0493522
17386 1 0.464855 0.618666 0.0493522
16837 3 0.492963 0.456924 0.00038994
16843 3 0.492963 0.956925 0.00038994
17389 1 0.492961 0.456922 0.049338
17395 1 0.492961 0.956922 0.049338
17895 3 0.169271 0.0672537 0.122246
17901 3 0.169271 0.567253 0.122246
17346 3 0.225565 0.745682 0.0735036
17352 3 0.225565 0.245683 0.0735036
17355 3 0.253713 0.0828399 0.0735036
17361 3 0.253713 0.582839 0.0735036
17896 3 0.211492 0.0749665 0.0978748
17897 3 0.197418 0.404058 0.122246
17898 3 0.225565 0.741128 0.122246
17902 3 0.211492 0.574966 0.0978748
17903 3 0.197418 0.904059 0.122246
17904 3 0.225565 0.241128 0.122246
17905 3 0.239639 0.412094 0.0978748
17907 1 0.253862 0.0790674 0.122536
17911 3 0.239639 0.912095 0.0978748
17913 1 0.253862 0.579067 0.122536
17357 3 0.28186 0.420224 0.0735036
17358 3 0.310007 0.757836 0.0735036
17363 3 0.28186 0.920225 0.0735036
17364 3 0.310007 0.257837 0.0735036
17906 1 0.267942 0.750097 0.0981521
17908 1 0.296112 0.0877192 0.0981531
17909 1 0.28199 0.416935 0.122472
17910 1 0.310129 0.755028 0.122444
17912 1 0.267942 0.250097 0.0981521
17914 1 0.296112 0.587719 0.0981532
17915 1 0.28199 0.916935 0.122472
17916 1 0.310129 0.255028 0.122444
17367 1 0.338271 0.096954 0.0738072
17369 1 0.366474 0.434559 0.0737944
17373 1 0.338271 0.596954 0.0738072
17375 1 0.366474 0.934559 0.0737944
17917 1 0.324204 0.425762 0.0980922
17918 1 0.352359 0.764346 0.0981174
17919 1 0.338257 0.0933195 0.122449
17920 1 0.380489 0.102658 0.0981107
17921 1 0.366399 0.431961 0.12247
17923 1 0.324204 0.925762 0.0980922
17924 1 0.352359 0.264345 0.0981174
17925 1 0.338257 0.59332 0.122449
17926 1 0.380489 0.602658 0.0981107
17927 1 0.366399 0.931961 0.12247
17370 1 0.394572 0.772736 0.0737669
17376 1 0.394572 0.272736 0.0737669
17379 1 0.422703 0.111332 0.0738008
17385 1 0.422703 0.611332 0.0738008
17922 1 0.39453 0.770686 0.122481
17928 1 0.39453 0.270686 0.122481
17929 1 0.408612 0.441149 0.0981353
17930 1 0.436747 0.779866 0.0981431
17931 1 0.422661 0.109601 0.122494
17935 1 0.408612 0.941149 0.0981353
17936 1 0.436747 0.279866 0.0981431
17937 1 0.422661 0.609601 0.122494
17381 1 0.450821 0.449618 0.0737526
17382 1 0.478914 0.787805 0.0737014
17387 1 0.450821 0.949618 0.0737526
17388 1 0.478914 0.287805 0.0737014
17932 1 0.464862 0.11849 0.0981158
17933 1 0.450791 0.448632 0.122494
17934 1 0.47891 0.787628 0.122486
17938 1 0.464862 0.61849 0.0981158
17939 1 0.450791 0.948632 0.122494
17940 1 0.47891 0.287628 0.122486
17941 1 0.492964 0.457047 0.0980984
17947 1 0.492964 0.957047 0.0980984
18438 3 0.141124 0.72516 0.170988
18444 3 0.141124 0.225161 0.170988
18445 3 0.155198 0.396272 0.146617
18446 3 0.183345 0.732971 0.146617
18447 3 0.169271 0.0617203 0.170988
18451 3 0.155198 0.896273 0.146617
18452 3 0.183345 0.232971 0.146617
18453 3 0.169271 0.56172 0.170988
18448 1 0.211697 0.0710708 0.146847
18449 1 0.197612 0.399157 0.171258
18450 1 0.225692 0.736623 0.171189
18454 1 0.211697 0.571071 0.146847
18455 1 0.197612 0.899157 0.171258
18456 1 0.225692 0.236623 0.171189
18457 1 0.23976 0.407874 0.146816
18459 1 0.253803 0.0741088 0.171153
18463 1 0.23976 0.907874 0.146816
18465 1 0.253803 0.574109 0.171153
18458 1 0.267885 0.745701 0.146812
18460 1 0.296033 0.0837565 0.146803
18461 1 0.281936 0.412115 0.171142
18462 1 0.310073 0.750447 0.171139
18464 1 0.267885 0.245701 0.146812
18466 1 0.296033 0.583756 0.146803
18467 1 0.281936 0.912115 0.171142
18468 1 0.310073 0.250447 0.171139
18469 1 0.324168 0.422101 0.146796
18470 1 0.352304 0.760759 0.146806
18471 1 0.338212 0.0891449 0.171148
18472 1 0.380442 0.0997067 0.146826
18473 1 0.366352 0.428221 0.171167
18475 1 0.324168 0.922101 0.146796
18476 1 0.352304 0.260759 0.146806
18477 1 0.338212 0.589145 0.171148
18478 1 0.380442 0.599707 0.146826
18479 1 0.366352 0.928221 0.171167
18474 1 0.394492 0.767635 0.171189
18480 1 0.394492 0.267635 0.171189
18481 1 0.408578 0.438868 0.146844
18482 1 0.436713 0.77824 0.146858
18483 1 0.422631 0.107331 0.171209
18487 1 0.408578 0.938868 0.146844
18488 1 0.436713 0.27824 0.146858
18489 1 0.422631 0.607331 0.171209
18484 1 0.464842 0.117708 0.146861
18485 1 0.450767 0.447233 0.171222
18486 1 0.4789 0.787234 0.171228
18490 1 0.464842 0.617708 0.146861
18491 1 0.450767 0.947233 0.171222
18492 1 0.4789 0.287234 0.171228
18493 1 0.492966 0.457185 0.14686
18499 1 0.492966 0.957185 0.14686
18986 3 0.0989034 0.717813 0.19536
18987 3 0.0848298 0.0467031 0.219731
18988 3 0.127051 0.0539386 0.19536
18989 3 0.112977 0.382634 0.219731
18992 3 0.0989034 0.217814 0.19536
18993 3 0.0848298 0.546703 0.219731
18994 3 0.127051 0.553938 0.19536
18995 3 0.112977 0.882634 0.219731
19537 3 0.0707563 0.37556 0.244102
19538 3 0.0989034 0.711277 0.244102
19540 1 0.127263 0.0476876 0.244359
19543 3 0.0707563 0.875561 0.244102
19544 3 0.0989034 0.211278 0.244102
19546 1 0.127263 0.547688 0.244359
18990 1 0.14131 0.719727 0.219986
18996 1 0.14131 0.219727 0.219986
18997 1 0.15516 0.390087 0.195477
18998 1 0.18339 0.727417 0.195511
18999 1 0.169383 0.0559386 0.219914
19003 1 0.15516 0.890087 0.195477
19004 1 0.18339 0.227417 0.195511
19005 1 0.169383 0.555939 0.219914
19549 1 0.15534 0.384298 0.244285
19550 1 0.183433 0.720867 0.244217
19555 1 0.15534 0.884298 0.244285
19556 1 0.183433 0.220867 0.244217
19000 1 0.211549 0.0649071 0.195523
19001 1 0.197464 0.392773 0.219838
19002 1 0.225606 0.730237 0.219837
19006 1 0.211549 0.564907 0.195523
19007 1 0.197464 0.892773 0.219838
19008 1 0.225606 0.230237 0.219837
19009 1 0.239706 0.402386 0.195507
19011 1 0.253743 0.0679217 0.219824
19015 1 0.239706 0.902386 0.195507
19017 1 0.253743 0.567922 0.219824
19552 1 0.211534 0.0578454 0.244175
19558 1 0.211534 0.557845 0.244175
19561 1 0.239657 0.395337 0.244162
19567 1 0.239657 0.895337 0.244162
19010 1 0.267839 0.740171 0.195484
19012 1 0.295978 0.0784069 0.195479
19013 1 0.281881 0.406021 0.219817
19014 1 0.31002 0.744631 0.21982
19016 1 0.267839 0.240171 0.195484
19018 1 0.295978 0.578407 0.195479
19019 1 0.281881 0.906021 0.219817
19020 1 0.31002 0.244631 0.21982
19562 1 0.267788 0.733281 0.244154
19564 1 0.295922 0.0717441 0.244153
19568 1 0.267788 0.233281 0.244154
19570 1 0.295922 0.571744 0.244153
19021 1 0.324118 0.417104 0.195486
19022 1 0.352259 0.756253 0.195502
19023 1 0.338162 0.0837794 0.219834
19024 1 0.380402 0.095849 0.195526
19025 1 0.366307 0.423479 0.219857
19027 1 0.324118 0.917104 0.195486
19028 1 0.352259 0.256253 0.195502
19029 1 0.338162 0.583779 0.219834
19030 1 0.380402 0.595849 0.195526
19031 1 0.366307 0.923479 0.219857
19573 1 0.324062 0.410791 0.244162
19574 1 0.352207 0.750491 0.244182
19576 1 0.380356 0.0908485 0.244211
19579 1 0.324062 0.910791 0.244162
19580 1 0.352207 0.250491 0.244182
19582 1 0.380356 0.590848 0.244211
19026 1 0.394454 0.763705 0.219886
19032 1 0.394454 0.263705 0.219886
19033 1 0.408545 0.435842 0.195552
19034 1 0.436687 0.776152 0.195573
19035 1 0.422601 0.104388 0.219914
19039 1 0.408545 0.935842 0.195552
19040 1 0.436687 0.276152 0.195573
19041 1 0.422601 0.604388 0.219914
19585 1 0.408508 0.431836 0.244244
19586 1 0.436661 0.77337 0.244276
19591 1 0.408508 0.931836 0.244244
19592 1 0.436661 0.27337 0.244276
19036 1 0.464827 0.11668 0.195587
19037 1 0.450748 0.445429 0.219937
19038 1 0.478893 0.786703 0.219949
19042 1 0.464827 0.61668 0.195587
19043 1 0.450748 0.945429 0.219937
19044 1 0.478893 0.286703 0.219949
19588 1 0.464815 0.115305 0.244298
19594 1 0.464815 0.615305 0.244298
19045 1 0.492965 0.457311 0.195591
19051 1 0.492965 0.957311 0.195591
19597 1 0.492967 0.457453 0.244305
19603 1 0.492967 0.957453 0.244305
19530 3 0.0566827 0.704415 0.268473
19536 3 0.0566827 0.204415 0.268473
20080 3 0.0426091 0.0332939 0.292845
20086 3 0.0426091 0.533293 0.292845
19539 3 0.0848298 0.0399004 0.268473
19541 1 0.113126 0.375821 0.26859
19545 3 0.0848298 0.5399 0.268473
19547 1 0.113126 0.875821 0.26859
20089 3 0.0707563 0.368535 0.292845
20090 1 0.0990793 0.704116 0.292916
20092 1 0.127163 0.0400432 0.292908
20095 3 0.0707563 0.868535 0.292845
20096 1 0.0990793 0.204116 0.292916
20098 1 0.127163 0.540043 0.292908
19542 1 0.141241 0.712284 0.268608
19548 1 0.141241 0.212284 0.268608
19551 1 0.169368 0.0487644 0.268585
19557 1 0.169368 0.548764 0.268585
20101 1 0.15529 0.376394 0.292919
20102 1 0.183401 0.712931 0.292896
20107 1 0.15529 0.876394 0.292919
20108 1 0.183401 0.212931 0.292896
19553 1 0.197472 0.385477 0.268539
19554 1 0.225581 0.7226 0.26851
19559 1 0.197472 0.885477 0.268539
19560 1 0.225581 0.2226 0.26851
19563 1 0.2537 0.0602637 0.268495
19569 1 0.2537 0.560264 0.268495
20119 1 0.239618 0.887072 0.292844
20104 1 0.211509 0.0497645 0.292867
20110 1 0.211509 0.549765 0.292867
20113 1 0.239618 0.387072 0.292844
19565 1 0.281826 0.39848 0.268487
19566 1 0.30996 0.73733 0.268489
19571 1 0.281826 0.89848 0.268487
19572 1 0.30996 0.23733 0.268489
20122 1 0.295859 0.563461 0.292822
20120 1 0.267734 0.22494 0.292828
20114 1 0.267734 0.72494 0.292828
20116 1 0.295859 0.0634606 0.292822
20134 1 0.380291 0.584055 0.292874
20132 1 0.352136 0.242902 0.292844
20131 1 0.323992 0.902743 0.292826
20128 1 0.380291 0.0840553 0.292874
19575 1 0.338101 0.07689 0.268503
20126 1 0.352136 0.742902 0.292844
19577 1 0.366249 0.417241 0.268529
20125 1 0.323992 0.402743 0.292826
19581 1 0.338101 0.57689 0.268503
19583 1 0.366249 0.917241 0.268529
20144 1 0.436624 0.269398 0.292956
20143 1 0.408455 0.926245 0.292914
20138 1 0.436624 0.769398 0.292956
20137 1 0.408455 0.426245 0.292914
19578 1 0.394405 0.758408 0.268564
19584 1 0.394405 0.258408 0.268564
19587 1 0.422565 0.100355 0.268601
19593 1 0.422565 0.600355 0.268601
20146 1 0.464796 0.6133 0.292988
20140 1 0.464796 0.1133 0.292988
19589 1 0.450726 0.442946 0.268634
19590 1 0.478888 0.785956 0.268653
19595 1 0.450726 0.942946 0.268634
19596 1 0.478888 0.285956 0.268653
20149 1 0.492969 0.457618 0.293
20155 1 0.492969 0.957618 0.293
20640 1 0.0567211 0.190528 0.365884
20639 3 0.0285356 0.854828 0.365958
20638 3 0.0426091 0.52597 0.341587
20634 1 0.0567211 0.690528 0.365884
20633 3 0.0285356 0.354827 0.365958
20632 3 0.0426091 0.0259703 0.341587
20081 3 0.0285356 0.362224 0.317216
20082 3 0.0566827 0.697215 0.317216
20087 3 0.0285356 0.862225 0.317216
20088 3 0.0566827 0.197215 0.317216
20651 1 0.113145 0.859433 0.365966
20650 1 0.127205 0.531511 0.341607
20649 1 0.085056 0.524387 0.365954
20648 1 0.0991363 0.195896 0.341615
20647 1 0.0710635 0.86039 0.341628
20645 1 0.113145 0.359433 0.365966
20644 1 0.127205 0.0315114 0.341607
20643 1 0.085056 0.0243875 0.365954
20642 1 0.0991363 0.695896 0.341615
20641 1 0.0710635 0.36039 0.341628
20091 1 0.0851573 0.0322958 0.317274
20093 1 0.113154 0.367825 0.317247
20097 1 0.0851573 0.532296 0.317274
20099 1 0.113154 0.867825 0.317247
20661 1 0.16932 0.530737 0.365949
20660 1 0.183376 0.203729 0.341585
20659 1 0.155283 0.867455 0.3416
20655 1 0.16932 0.030737 0.365949
20654 1 0.183376 0.703729 0.341585
20653 1 0.155283 0.367455 0.3416
20652 1 0.14123 0.194897 0.365961
20646 1 0.14123 0.694897 0.365961
20094 1 0.14124 0.70385 0.317252
20100 1 0.14124 0.20385 0.317252
20103 1 0.169336 0.0401902 0.317246
20109 1 0.169336 0.54019 0.317246
20673 1 0.253596 0.540472 0.365879
20671 1 0.23957 0.877346 0.341538
20667 1 0.253596 0.0404715 0.365879
20665 1 0.23957 0.377346 0.341538
20664 1 0.225503 0.203444 0.365905
20663 1 0.197411 0.866899 0.36593
20662 1 0.211472 0.540327 0.341563
20658 1 0.225503 0.703444 0.365905
20657 1 0.197411 0.366899 0.36593
20656 1 0.211472 0.0403273 0.341563
20121 1 0.253648 0.551205 0.317178
20105 1 0.197439 0.376787 0.317226
20106 1 0.225542 0.713746 0.317201
20111 1 0.197439 0.876787 0.317226
20112 1 0.225542 0.213746 0.317201
20115 1 0.253648 0.0512045 0.317178
20676 1 0.309799 0.216611 0.365833
20675 1 0.281694 0.87813 0.365854
20674 1 0.295783 0.553225 0.341498
20672 1 0.267673 0.21493 0.341515
20670 1 0.309799 0.716611 0.365833
20669 1 0.281694 0.37813 0.365854
20668 1 0.295783 0.053225 0.341498
20666 1 0.267673 0.71493 0.341515
20124 1 0.309884 0.228143 0.317156
20123 1 0.281761 0.889291 0.317163
20118 1 0.309884 0.728143 0.317156
20117 1 0.281761 0.389291 0.317163
20687 1 0.366052 0.89714 0.365819
20686 1 0.380193 0.574526 0.341513
20685 1 0.337917 0.556174 0.365819
20684 1 0.352039 0.232769 0.341493
20683 1 0.323903 0.89243 0.341489
20681 1 0.366052 0.39714 0.365819
20680 1 0.380193 0.074526 0.341513
20679 1 0.337917 0.0561735 0.365819
20678 1 0.352039 0.732769 0.341493
20677 1 0.323903 0.39243 0.341489
20135 1 0.366167 0.908802 0.317181
20133 1 0.338018 0.567918 0.317162
20129 1 0.366167 0.408802 0.317181
20127 1 0.338018 0.0679182 0.317162
20697 1 0.422402 0.58505 0.365882
20696 1 0.436559 0.263166 0.341604
20695 1 0.408367 0.91795 0.341553
20691 1 0.422402 0.0850498 0.365882
20690 1 0.436559 0.763166 0.341604
20689 1 0.408367 0.41795 0.341553
20688 1 0.394212 0.239946 0.365839
20682 1 0.394212 0.739946 0.365839
20145 1 0.422505 0.594448 0.317262
20139 1 0.422505 0.0944481 0.317262
20136 1 0.39433 0.250961 0.317216
20130 1 0.39433 0.75096 0.317216
20700 1 0.478851 0.28253 0.365979
20699 1 0.450619 0.932732 0.365938
20698 1 0.464763 0.60999 0.341649
20694 1 0.478851 0.782529 0.365979
20693 1 0.450619 0.432732 0.365938
20692 1 0.464763 0.10999 0.341649
20148 1 0.478876 0.284743 0.317334
20147 1 0.450689 0.939154 0.317307
20142 1 0.478876 0.784743 0.317334
20141 1 0.450689 0.439154 0.317307
20707 1 0.49297 0.95777 0.341667
20701 1 0.49297 0.45777 0.341667
21742 1 0.0426587 0.511048 0.43899
21740 3 0.014462 0.176077 0.439072
21736 1 0.0426587 0.0110476 0.43899
21734 3 0.014462 0.676077 0.439072
21192 1 0.0570003 0.180717 0.414709
21191 3 0.0285356 0.847031 0.414701
21190 3 0.0426091 0.518161 0.390329
21188 3 0.014462 0.183813 0.390329
21186 1 0.0570003 0.680717 0.414709
21185 3 0.0285356 0.347031 0.414701
21184 3 0.0426091 0.0181618 0.390329
21182 3 0.014462 0.683812 0.390329
21754 1 0.127176 0.51264 0.439048
21752 1 0.0990838 0.178155 0.439048
21751 1 0.0709941 0.844048 0.439047
21748 1 0.127176 0.0126396 0.439048
21746 1 0.0990838 0.678155 0.439048
21745 1 0.0709941 0.344048 0.439047
21203 1 0.113139 0.850139 0.414682
21202 1 0.12718 0.522447 0.390321
21201 1 0.0850631 0.515391 0.414674
21200 1 0.099091 0.187341 0.390308
21199 1 0.0710622 0.85265 0.390292
21197 1 0.113139 0.350139 0.414682
21196 1 0.12718 0.0224472 0.390321
21195 1 0.0850631 0.0153907 0.414674
21194 1 0.099091 0.687341 0.390308
21193 1 0.0710622 0.35265 0.390292
21764 1 0.183365 0.182324 0.439028
21763 1 0.155272 0.847382 0.439042
21758 1 0.183365 0.682324 0.439028
21757 1 0.155272 0.347382 0.439042
21213 1 0.169312 0.520364 0.414671
21212 1 0.183358 0.193558 0.3903
21211 1 0.155268 0.857866 0.390315
21207 1 0.169312 0.020364 0.414671
21206 1 0.183358 0.693558 0.3903
21205 1 0.155268 0.357866 0.390315
21204 1 0.141221 0.185132 0.414681
21198 1 0.141221 0.685132 0.414681
21775 1 0.239541 0.852977 0.438984
21769 1 0.239541 0.352977 0.438984
21766 1 0.211454 0.517495 0.439008
21760 1 0.211454 0.0174949 0.439008
21225 1 0.253573 0.527883 0.414601
21223 1 0.239535 0.866013 0.390251
21219 1 0.253573 0.0278833 0.414601
21217 1 0.239535 0.366013 0.390251
21216 1 0.225488 0.191654 0.414629
21215 1 0.197401 0.855849 0.414653
21214 1 0.211447 0.529583 0.390277
21210 1 0.225488 0.691654 0.414629
21209 1 0.197401 0.355849 0.414653
21208 1 0.211447 0.029583 0.390277
21778 1 0.295702 0.525321 0.438925
21776 1 0.267623 0.188867 0.438957
21772 1 0.295702 0.0253211 0.438925
21770 1 0.267623 0.688867 0.438957
21228 1 0.309741 0.20224 0.414539
21227 1 0.281657 0.864676 0.414571
21226 1 0.295716 0.540644 0.390194
21224 1 0.267624 0.202977 0.390223
21222 1 0.309741 0.702239 0.414539
21221 1 0.281657 0.364676 0.414571
21220 1 0.295716 0.0406444 0.390194
21218 1 0.267624 0.702977 0.390223
21790 1 0.379933 0.541063 0.43881
21788 1 0.351853 0.200965 0.438851
21787 1 0.323778 0.862575 0.43889
21784 1 0.379933 0.0410631 0.43881
21782 1 0.351853 0.700965 0.438851
21781 1 0.323778 0.362575 0.43889
21239 1 0.365929 0.880962 0.414476
21238 1 0.380057 0.560776 0.39014
21237 1 0.337829 0.540858 0.414506
21236 1 0.351925 0.219143 0.390148
21235 1 0.323814 0.879258 0.390168
21233 1 0.365929 0.380962 0.414476
21232 1 0.380057 0.0607767 0.39014
21231 1 0.337829 0.0408585 0.414506
21230 1 0.351925 0.719143 0.390148
21229 1 0.323814 0.379258 0.390168
21800 1 0.436181 0.231712 0.438722
21799 1 0.408031 0.883862 0.438768
21794 1 0.436181 0.731713 0.438722
21793 1 0.408031 0.383862 0.438768
21249 1 0.422217 0.568983 0.414452
21248 1 0.436435 0.252375 0.390198
21247 1 0.408223 0.904869 0.390154
21243 1 0.422217 0.0689826 0.414452
21242 1 0.436435 0.752376 0.390198
21241 1 0.408223 0.404869 0.390154
21240 1 0.394051 0.223257 0.414456
21234 1 0.394051 0.723257 0.414456
21802 1 0.464494 0.589453 0.43876
21796 1 0.464494 0.0894535 0.43876
21252 1 0.478794 0.277807 0.414562
21251 1 0.450463 0.920219 0.414494
21250 1 0.464692 0.603805 0.39026
21246 1 0.478794 0.777806 0.414562
21245 1 0.450463 0.420218 0.414494
21244 1 0.464692 0.103805 0.39026
21811 1 0.492967 0.958052 0.438846
21805 1 0.492967 0.458052 0.438846
21259 1 0.492969 0.957915 0.390287
21253 1 0.492969 0.457915 0.390287
21744 1 0.0569929 0.172546 0.463415
21743 3 0.0285356 0.838961 0.463443
21741 3 0.00038843 0.505312 0.463443
21738 1 0.0569929 0.672546 0.463415
21737 3 0.0285356 0.33896 0.463443
21735 3 0.00038843 0.00531247 0.463443
22286 3 0.014462 0.668159 0.487814
22288 1 0.0429014 0.00107973 0.487859
22292 3 0.014462 0.16816 0.487814
22294 1 0.0429014 0.50108 0.487859
21755 1 0.113139 0.840383 0.463414
21753 1 0.0850382 0.506337 0.463406
21749 1 0.113139 0.340383 0.463414
21747 1 0.0850382 0.0063369 0.463406
22297 1 0.0710198 0.334735 0.487781
22298 1 0.0991151 0.66839 0.487781
22300 1 0.127206 0.00221699 0.487781
22303 1 0.0710198 0.834735 0.487781
22304 1 0.0991151 0.16839 0.487781
22306 1 0.127206 0.502217 0.487781
21765 1 0.169333 0.509079 0.463403
21759 1 0.169333 0.00907919 0.463403
21756 1 0.141236 0.174658 0.463412
21750 1 0.141236 0.674658 0.463412
22309 1 0.155306 0.336174 0.487775
22310 1 0.183407 0.670187 0.487764
22315 1 0.155306 0.836174 0.487775
22316 1 0.183407 0.170187 0.487764
21777 1 0.253608 0.513395 0.463344
21771 1 0.253608 0.013395 0.463344
21768 1 0.225521 0.178393 0.463367
21767 1 0.197429 0.843646 0.463387
21762 1 0.225521 0.678393 0.463367
21761 1 0.197429 0.343646 0.463387
22312 1 0.211506 0.00425879 0.487748
22318 1 0.211506 0.504259 0.487748
22321 1 0.239602 0.338422 0.487729
22327 1 0.239602 0.838422 0.487729
21780 1 0.309767 0.184579 0.463288
21779 1 0.281691 0.848736 0.463318
21774 1 0.309767 0.684579 0.463288
21773 1 0.281691 0.348736 0.463318
22322 1 0.267695 0.672719 0.487708
22324 1 0.295783 0.00720686 0.487685
22328 1 0.267695 0.172719 0.487708
22330 1 0.295783 0.507207 0.487685
21791 1 0.365895 0.858874 0.463211
21789 1 0.337836 0.52116 0.463253
21785 1 0.365895 0.358874 0.463211
21783 1 0.337836 0.0211594 0.463253
22333 1 0.323862 0.342001 0.48766
22334 1 0.351929 0.67728 0.487632
22336 1 0.379974 0.0133447 0.487599
22339 1 0.323862 0.842001 0.48766
22340 1 0.351929 0.17728 0.487632
22342 1 0.379974 0.513344 0.487599
21801 1 0.42199 0.541229 0.463087
21795 1 0.42199 0.0412287 0.463087
21792 1 0.393945 0.198446 0.46316
21786 1 0.393945 0.698446 0.46316
22345 1 0.407979 0.350769 0.487554
22346 1 0.435943 0.690829 0.487488
22351 1 0.407979 0.850769 0.487554
22352 1 0.435943 0.190828 0.487488
21804 1 0.478593 0.262446 0.46304
21803 1 0.450105 0.891793 0.462966
21798 1 0.478593 0.762446 0.46304
21797 1 0.450105 0.391792 0.462966
22348 1 0.463996 0.0413481 0.487332
22354 1 0.463996 0.541348 0.487332
22357 1 0.492965 0.458194 0.487381
22363 1 0.492965 0.958194 0.487381
22287 3 0.00038843 0.997583 0.512186
22289 3 0.0285356 0.330772 0.512186
22290 1 0.05707 0.663437 0.512169
22293 3 0.00038843 0.497583 0.512186
22295 3 0.0285356 0.830773 0.512186
22296 1 0.05707 0.163437 0.512169
22838 3 0.014462 0.660212 0.536557
22839 3 0.00038843 0.989899 0.560928
22840 1 0.042905 0.992512 0.536485
22841 3 0.0285356 0.322638 0.560928
22842 1 0.0570014 0.654826 0.560909
22844 3 0.014462 0.160213 0.536557
22845 3 0.00038843 0.489899 0.560928
22846 1 0.042905 0.492512 0.536485
22847 3 0.0285356 0.822638 0.560928
22848 1 0.0570014 0.154826 0.560909
22299 1 0.0850995 0.996669 0.512161
22301 1 0.11318 0.33013 0.512155
22305 1 0.0850995 0.496669 0.512161
22307 1 0.11318 0.83013 0.512155
22849 1 0.0710336 0.325572 0.536547
22850 1 0.0991384 0.658576 0.536534
22851 1 0.0850674 0.98743 0.56091
22852 1 0.12724 0.991658 0.536522
22853 1 0.113192 0.320157 0.560893
22855 1 0.0710336 0.825572 0.536547
22856 1 0.0991384 0.158576 0.536534
22857 1 0.0850674 0.48743 0.56091
22858 1 0.12724 0.491658 0.536522
22859 1 0.113192 0.820157 0.560893
22302 1 0.141279 0.663673 0.512149
22308 1 0.141279 0.163673 0.512149
22311 1 0.169383 0.997194 0.512138
22317 1 0.169383 0.497194 0.512138
22854 1 0.141311 0.652827 0.560882
22860 1 0.141311 0.152827 0.560882
22861 1 0.155352 0.324733 0.536511
22862 1 0.183466 0.6577 0.536499
22863 1 0.169431 0.985363 0.560871
22867 1 0.155352 0.824733 0.536511
22868 1 0.183466 0.1577 0.536499
22869 1 0.169431 0.485363 0.560871
22313 1 0.197489 0.330674 0.512125
22314 1 0.225595 0.664102 0.512109
22319 1 0.197489 0.830674 0.512125
22320 1 0.225595 0.164102 0.512109
22323 1 0.2537 0.997479 0.512093
22329 1 0.2537 0.497479 0.512093
22864 1 0.21158 0.99052 0.536485
22865 1 0.197553 0.317695 0.560858
22866 1 0.225676 0.649754 0.560845
22870 1 0.21158 0.49052 0.536485
22871 1 0.197553 0.817695 0.560858
22872 1 0.225676 0.149754 0.560845
22873 1 0.239695 0.32315 0.536471
22875 1 0.253801 0.981444 0.560834
22879 1 0.239695 0.82315 0.536471
22881 1 0.253801 0.481443 0.560834
22325 1 0.281802 0.330791 0.512076
22326 1 0.3099 0.664014 0.51206
22331 1 0.281802 0.830791 0.512076
22332 1 0.3099 0.164014 0.51206
22874 1 0.267811 0.655528 0.536459
22876 1 0.295925 0.987543 0.536448
22877 1 0.281926 0.312622 0.560827
22878 1 0.310051 0.643083 0.560826
22880 1 0.267811 0.155528 0.536459
22882 1 0.295925 0.487543 0.536448
22883 1 0.281926 0.812622 0.560827
22884 1 0.310051 0.143082 0.560826
22335 1 0.337991 0.997122 0.512046
22337 1 0.366071 0.329989 0.512036
22341 1 0.337991 0.497122 0.512046
22343 1 0.366071 0.829989 0.512036
22885 1 0.324037 0.319036 0.536443
22886 1 0.352147 0.649677 0.536447
22887 1 0.338175 0.972461 0.560838
22888 1 0.380252 0.978789 0.536469
22889 1 0.366296 0.300119 0.560869
22891 1 0.324037 0.819037 0.536443
22892 1 0.352147 0.149676 0.536447
22893 1 0.338175 0.472461 0.560838
22894 1 0.380252 0.47879 0.536469
22895 1 0.366296 0.800118 0.560869
22338 1 0.394132 0.662317 0.512034
22344 1 0.394132 0.162317 0.512034
22347 1 0.422169 0.993245 0.512048
22353 1 0.422169 0.493246 0.512049
22890 1 0.394412 0.624928 0.560937
22896 1 0.394412 0.124929 0.560937
22897 1 0.408355 0.304975 0.536527
22898 1 0.436479 0.624932 0.536655
22899 1 0.422527 0.944887 0.561071
22903 1 0.408355 0.804974 0.536527
22904 1 0.436479 0.124933 0.536655
22905 1 0.422527 0.444886 0.561071
22349 1 0.450251 0.320413 0.512115
22350 1 0.478525 0.624941 0.512384
22355 1 0.450251 0.820412 0.512115
22356 1 0.478525 0.124942 0.512384
22900 1 0.464621 0.929455 0.537
22901 1 0.450636 0.256621 0.56135
22902 1 0.478797 0.559043 0.561703
22906 1 0.464621 0.429454 0.537
22907 1 0.450636 0.756621 0.56135
22908 1 0.478797 0.0590426 0.561703
22909 1 0.49296 0.208529 0.537491
22915 1 0.49296 0.708529 0.537491
23390 3 0.014462 0.652392 0.585299
23392 3 0.0426091 0.984871 0.585299
23393 3 0.0285356 0.314722 0.609671
23394 1 0.0569998 0.645826 0.60959
23396 3 0.014462 0.152392 0.585299
23398 3 0.0426091 0.48487 0.585299
23399 3 0.0285356 0.814722 0.609671
23400 1 0.0569998 0.145826 0.60959
23401 1 0.0710036 0.3168 0.585261
23402 1 0.0991377 0.649135 0.585253
23403 1 0.085109 0.978348 0.60961
23404 1 0.127261 0.981433 0.58525
23405 1 0.113216 0.310508 0.609616
23407 1 0.0710036 0.8168 0.585261
23408 1 0.0991377 0.149135 0.585253
23409 1 0.085109 0.478348 0.60961
23410 1 0.127261 0.481433 0.58525
23411 1 0.113216 0.810508 0.609616
23406 1 0.141327 0.642449 0.609611
23412 1 0.141327 0.142449 0.609611
23413 1 0.155386 0.313631 0.585241
23414 1 0.183512 0.645598 0.585228
23415 1 0.169455 0.974162 0.609598
23419 1 0.155386 0.813631 0.585241
23420 1 0.183512 0.145598 0.585228
23421 1 0.169455 0.474162 0.609598
23416 1 0.211641 0.977243 0.585215
23417 1 0.197588 0.305529 0.609584
23418 1 0.225724 0.636451 0.609572
23422 1 0.211641 0.477243 0.585215
23423 1 0.197588 0.805529 0.609584
23424 1 0.225724 0.136451 0.609572
23425 1 0.239772 0.308465 0.585205
23427 1 0.253861 0.966789 0.609567
23431 1 0.239772 0.808465 0.585205
23433 1 0.253861 0.466789 0.609567
23426 1 0.267904 0.63911 0.585199
23428 1 0.296037 0.968978 0.585201
23429 1 0.281998 0.296359 0.609569
23430 1 0.310131 0.624915 0.609585
23432 1 0.267904 0.13911 0.585199
23434 1 0.296037 0.468978 0.585201
23435 1 0.281998 0.796359 0.609569
23436 1 0.310131 0.124915 0.609585
23437 1 0.324166 0.297749 0.585216
23438 1 0.352292 0.624925 0.58525
23439 1 0.338258 0.952087 0.609619
23440 1 0.380412 0.949739 0.585316
23441 1 0.366378 0.277384 0.60968
23443 1 0.324166 0.797749 0.585216
23444 1 0.352292 0.124925 0.58525
23445 1 0.338258 0.452087 0.609619
23446 1 0.380412 0.449739 0.585316
23447 1 0.366378 0.777384 0.60968
23442 1 0.39449 0.600176 0.60978
23448 1 0.39449 0.100175 0.60978
23449 1 0.408525 0.271069 0.585433
23450 1 0.43663 0.587547 0.585634
23451 1 0.422596 0.919868 0.609929
23455 1 0.408525 0.771069 0.585433
23456 1 0.43663 0.0875465 0.585634
23457 1 0.422596 0.419868 0.609929
23452 1 0.464756 0.8991 0.585883
23453 1 0.450714 0.23652 0.61011
23454 1 0.478868 0.55143 0.610233
23458 1 0.464756 0.399101 0.585883
23459 1 0.450714 0.73652 0.61011
23460 1 0.478868 0.0514294 0.610233
23461 1 0.492956 0.208652 0.585985
23467 1 0.492956 0.708651 0.585985
23942 3 0.014462 0.64484 0.634042
23944 3 0.0426091 0.976907 0.634042
23945 3 0.0285356 0.307163 0.658413
23946 3 0.0566827 0.638968 0.658413
23948 3 0.014462 0.14484 0.634042
23950 3 0.0426091 0.476907 0.634042
23951 3 0.0285356 0.807163 0.658413
23952 3 0.0566827 0.138969 0.658413
24496 3 0.0426091 0.969391 0.682784
24502 3 0.0426091 0.469391 0.682784
23953 1 0.0711052 0.308341 0.633964
23954 1 0.0991374 0.640121 0.633992
23955 1 0.0850325 0.970542 0.65834
23956 1 0.127255 0.971855 0.633983
23957 1 0.113146 0.301899 0.658356
23959 1 0.0711052 0.808341 0.633964
23960 1 0.0991374 0.140121 0.633992
23961 1 0.0850325 0.470542 0.65834
23962 1 0.127255 0.471855 0.633983
23963 1 0.113146 0.801899 0.658356
24505 3 0.0707563 0.300933 0.682784
24506 1 0.0990778 0.632268 0.682698
24508 1 0.127191 0.963362 0.682707
24511 3 0.0707563 0.800934 0.682784
24512 1 0.0990778 0.132268 0.682698
24514 1 0.127191 0.463362 0.682707
23958 1 0.141293 0.633139 0.658338
23964 1 0.141293 0.133139 0.658338
23965 1 0.155382 0.303355 0.633969
23966 1 0.18352 0.634524 0.633951
23967 1 0.169437 0.964142 0.658318
23971 1 0.155382 0.803355 0.633969
23972 1 0.18352 0.134524 0.633951
23973 1 0.169437 0.464142 0.658318
24517 1 0.155347 0.294254 0.682682
24518 1 0.183499 0.624842 0.682661
24523 1 0.155347 0.794254 0.682682
24524 1 0.183499 0.124842 0.682661
23968 1 0.211661 0.965261 0.633937
23969 1 0.197585 0.294772 0.6583
23970 1 0.225732 0.624886 0.658291
23974 1 0.211661 0.465261 0.633937
23975 1 0.197585 0.794772 0.6583
23976 1 0.225732 0.124886 0.658291
23977 1 0.239803 0.295439 0.63393
23979 1 0.253874 0.954345 0.658293
23983 1 0.239803 0.795438 0.63393
23985 1 0.253874 0.454345 0.658293
24520 1 0.211652 0.954973 0.682647
24526 1 0.211652 0.454973 0.682647
24529 1 0.239799 0.284498 0.682648
24535 1 0.239799 0.784498 0.682648
23978 1 0.267942 0.624897 0.633933
23980 1 0.296076 0.953448 0.633948
23981 1 0.28201 0.282997 0.658308
23982 1 0.31014 0.610676 0.658338
23984 1 0.267942 0.124897 0.633933
23986 1 0.296076 0.453448 0.633948
23987 1 0.28201 0.782997 0.658308
23988 1 0.31014 0.110676 0.658338
24530 1 0.267938 0.613309 0.682662
24532 1 0.29607 0.941293 0.682691
24536 1 0.267938 0.113309 0.682662
24538 1 0.29607 0.441293 0.682691
23989 1 0.324205 0.280839 0.633981
23990 1 0.352325 0.606741 0.634036
23991 1 0.338263 0.937172 0.658387
23992 1 0.380439 0.930793 0.634121
23993 1 0.366377 0.26226 0.658459
23995 1 0.324205 0.780839 0.633981
23996 1 0.352325 0.106741 0.634036
23997 1 0.338263 0.437172 0.658387
23998 1 0.380439 0.430793 0.634121
23999 1 0.366377 0.76226 0.658459
24541 1 0.324194 0.268313 0.682735
24542 1 0.352311 0.594238 0.682797
24544 1 0.380425 0.918986 0.682876