ITEM: TIMESTEP
42
ITEM: NUMBER OF ATOMS
2360
ITEM: BOX BOUNDS ss pp ss
-4.1554853657999999e+01 4.1263454361000001e+01
-4.1208122699999999e-01 4.5329187729999996e+00
-4.1249271465000000e+01 4.1585714086999999e+01
ITEM: ATOMS id type xs ys zs
17354 3 0.267786 0.753434 0.0491324
17356 3 0.295933 0.0907913 0.0491324
17360 3 0.267786 0.253434 0.0491324
17362 3 0.295933 0.590791 0.0491324
16815 3 0.338154 0.0985165 0.0247612
16817 3 0.366301 0.436151 0.0247612
16821 3 0.338154 0.598516 0.0247612
16823 3 0.366301 0.936152 0.0247612
17365 3 0.32408 0.428343 0.0491324
17366 3 0.352228 0.766081 0.0491324
17368 3 0.380375 0.103986 0.0491324
17371 3 0.32408 0.928344 0.0491324
17372 3 0.352228 0.266081 0.0491324
17374 3 0.380375 0.603986 0.0491324
16818 3 0.394448 0.773924 0.0247612
16824 3 0.394448 0.273925 0.0247612
16825 3 0.408522 0.443596 0.00038994
16826 3 0.436669 0.781318 0.00038994
16827 3 0.422595 0.111813 0.0247612
16831 3 0.408522 0.943596 0.00038994
16832 3 0.436669 0.281318 0.00038994
16833 3 0.422595 0.611812 0.0247612
17377 1 0.408611 0.443349 0.0494522
17378 1 0.436772 0.780926 0.0494796
17383 1 0.408611 0.943349 0.0494522
17384 1 0.436772 0.280926 0.0494796
16828 3 0.464816 0.119104 0.00038994
16829 3 0.450743 0.449789 0.0247612
16830 3 0.47889 0.787825 0.0247612
16834 3 0.464816 0.619104 0.00038994
16835 3 0.450743 0.949789 0.0247612
16836 3 0.47889 0.287825 0.0247612
17380 1 0.464845 0.118733 0.049351
17386 1 0.464845 0.618733 0.049351
16837 3 0.492963 0.456927 0.00038994
16843 3 0.492963 0.956927 0.00038994
17389 1 0.492956 0.456956 0.0493372
17395 1 0.492956 0.956956 0.0493372
17895 3 0.169271 0.0673606 0.122246
17901 3 0.169271 0.56736 0.122246
17346 3 0.225565 0.745769 0.0735036
17352 3 0.225565 0.24577 0.0735036
17355 3 0.253713 0.082923 0.0735036
17361 3 0.253713 0.582922 0.0735036
17896 3 0.211492 0.0750627 0.0978748
17897 3 0.197418 0.404163 0.122246
17898 3 0.225565 0.741231 0.122246
17902 3 0.211492 0.575062 0.0978748
17903 3 0.197418 0.904164 0.122246
17904 3 0.225565 0.241231 0.122246
17905 3 0.239639 0.412187 0.0978748
17907 1 0.253861 0.0791591 0.122537
17911 3 0.239639 0.912187 0.0978748
17913 1 0.253861 0.579159 0.122537
17357 3 0.28186 0.420302 0.0735036
17358 3 0.310007 0.757908 0.0735036
17363 3 0.28186 0.920303 0.0735036
17364 3 0.310007 0.257908 0.0735036
17906 1 0.267941 0.750188 0.0981521
17908 1 0.296109 0.087805 0.0981538
17909 1 0.281986 0.417022 0.122473
17910 1 0.310124 0.755111 0.122446
17912 1 0.267941 0.250188 0.0981521
17914 1 0.296109 0.587805 0.0981538
17915 1 0.281986 0.917022 0.122473
17916 1 0.310124 0.255111 0.122446
17367 1 0.338263 0.0970414 0.0738086
17369 1 0.366454 0.43469 0.073794
17373 1 0.338263 0.597041 0.0738086
17375 1 0.366454 0.93469 0.073794
17917 1 0.324197 0.425849 0.0980944
17918 1 0.352349 0.764434 0.0981186
17919 1 0.338251 0.0933986 0.122451
17920 1 0.380475 0.102761 0.0981036
17921 1 0.366392 0.432036 0.122469
17923 1 0.324197 0.925849 0.0980944
17924 1 0.352349 0.264434 0.0981186
17925 1 0.338251 0.593399 0.122451
17926 1 0.380475 0.602761 0.0981036
17927 1 0.366392 0.932036 0.122469
17370 1 0.39454 0.772847 0.073747
17376 1 0.39454 0.272847 0.073747
17379 1 0.422679 0.111434 0.0737894
17385 1 0.422679 0.611434 0.0737894
17922 1 0.39452 0.770746 0.122475
17928 1 0.39452 0.270746 0.122475
17929 1 0.408594 0.441209 0.0981218
17930 1 0.436731 0.779919 0.0981333
17931 1 0.42265 0.109637 0.122484
17935 1 0.408594 0.941209 0.0981218
17936 1 0.436731 0.279919 0.0981333
17937 1 0.42265 0.609637 0.122484
17381 1 0.450805 0.449701 0.0737466
17382 1 0.478903 0.787861 0.0736978
17387 1 0.450805 0.949701 0.0737466
17388 1 0.478903 0.287861 0.0736978
17932 1 0.464849 0.118535 0.098109
17933 1 0.450779 0.448657 0.122486
17934 1 0.478899 0.787642 0.122479
17938 1 0.464849 0.618535 0.098109
17939 1 0.450779 0.948657 0.122486
17940 1 0.478899 0.287642 0.122479
17941 1 0.492954 0.457074 0.0980939
17947 1 0.492954 0.957074 0.0980939
18438 3 0.141124 0.725283 0.170988
18444 3 0.141124 0.225284 0.170988
18445 3 0.155198 0.396387 0.146617
18446 3 0.183345 0.733085 0.146617
18447 3 0.169271 0.061844 0.170988
18451 3 0.155198 0.896388 0.146617
18452 3 0.183345 0.233086 0.146617
18453 3 0.169271 0.561844 0.170988
18448 1 0.211696 0.0711757 0.146848
18449 1 0.197611 0.399264 0.171259
18450 1 0.22569 0.736717 0.171191
18454 1 0.211696 0.571176 0.146848
18455 1 0.197611 0.899264 0.171259
18456 1 0.22569 0.236717 0.171191
18457 1 0.239758 0.407969 0.146817
18459 1 0.253801 0.0741898 0.171155
18463 1 0.239758 0.907969 0.146817
18465 1 0.253801 0.57419 0.171155
18458 1 0.267882 0.745785 0.146814
18460 1 0.296029 0.0838329 0.146805
18461 1 0.281933 0.412185 0.171145
18462 1 0.310069 0.750512 0.171141
18464 1 0.267882 0.245785 0.146814
18466 1 0.296029 0.583833 0.146805
18467 1 0.281933 0.912185 0.171145
18468 1 0.310069 0.250512 0.171141
18469 1 0.324163 0.422172 0.146798
18470 1 0.352299 0.760821 0.146807
18471 1 0.338208 0.0892019 0.17115
18472 1 0.380436 0.0997609 0.146823
18473 1 0.366348 0.428275 0.171166
18475 1 0.324163 0.922172 0.146798
18476 1 0.352299 0.260821 0.146807
18477 1 0.338208 0.589202 0.17115
18478 1 0.380436 0.599761 0.146823
18479 1 0.366348 0.928275 0.171166
18474 1 0.394487 0.767681 0.171186
18480 1 0.394487 0.267681 0.171186
18481 1 0.408571 0.438907 0.146839
18482 1 0.436704 0.778261 0.14685
18483 1 0.422625 0.10736 0.171204
18487 1 0.408571 0.938907 0.146839
18488 1 0.436704 0.278261 0.14685
18489 1 0.422625 0.60736 0.171204
18484 1 0.464834 0.117716 0.146855
18485 1 0.450761 0.447247 0.171217
18486 1 0.478893 0.787239 0.171223
18490 1 0.464834 0.617716 0.146855
18491 1 0.450761 0.947247 0.171217
18492 1 0.478893 0.287239 0.171223
18493 1 0.492958 0.457182 0.146855
18499 1 0.492958 0.957182 0.146855
18986 3 0.0989034 0.717942 0.19536
18987 3 0.0848298 0.0468374 0.219731
18988 3 0.127051 0.0540693 0.19536
18989 3 0.112977 0.382771 0.219731
18992 3 0.0989034 0.217942 0.19536
18993 3 0.0848298 0.546837 0.219731
18994 3 0.127051 0.554069 0.19536
18995 3 0.112977 0.882772 0.219731
19537 3 0.0707563 0.3757 0.244102
19538 3 0.0989034 0.711421 0.244102
19540 1 0.127262 0.0478186 0.24436
19543 3 0.0707563 0.8757 0.244102
19544 3 0.0989034 0.211422 0.244102
19546 1 0.127262 0.547819 0.24436
18990 1 0.141309 0.71985 0.219987
18996 1 0.141309 0.21985 0.219987
18997 1 0.15516 0.390209 0.195477
18998 1 0.18339 0.727526 0.195511
18999 1 0.169382 0.0560501 0.219915
19003 1 0.15516 0.890209 0.195477
19004 1 0.18339 0.227526 0.195512
19005 1 0.169382 0.55605 0.219915
19549 1 0.155339 0.384417 0.244286
19550 1 0.183432 0.720971 0.244219
19555 1 0.155339 0.884417 0.244286
19556 1 0.183432 0.220971 0.244219
19000 1 0.211547 0.0650056 0.195524
19001 1 0.197463 0.392877 0.21984
19002 1 0.225604 0.730324 0.219839
19006 1 0.211547 0.565006 0.195524
19007 1 0.197463 0.892877 0.21984
19008 1 0.225604 0.230324 0.219839
19009 1 0.239704 0.402468 0.195509
19011 1 0.253741 0.0679957 0.219827
19015 1 0.239704 0.902468 0.195509
19017 1 0.253741 0.567996 0.219827
19552 1 0.211532 0.057938 0.244178
19558 1 0.211532 0.557938 0.244178
19561 1 0.239654 0.395419 0.244165
19567 1 0.239654 0.895419 0.244165
19010 1 0.267836 0.740242 0.195486
19012 1 0.295974 0.0784694 0.195482
19013 1 0.281878 0.406087 0.21982
19014 1 0.310018 0.744689 0.219822
19016 1 0.267836 0.240242 0.195486
19018 1 0.295974 0.578469 0.195482
19019 1 0.281878 0.906087 0.21982
19020 1 0.310018 0.244689 0.219822
19562 1 0.267785 0.733353 0.244157
19564 1 0.29592 0.0718058 0.244156
19568 1 0.267785 0.233353 0.244157
19570 1 0.29592 0.571806 0.244156
19021 1 0.324115 0.417161 0.195488
19022 1 0.352256 0.756309 0.195503
19023 1 0.33816 0.0838353 0.219836
19024 1 0.380398 0.0959018 0.195526
19025 1 0.366304 0.423531 0.219858
19027 1 0.324115 0.917161 0.195488
19028 1 0.352256 0.256309 0.195503
19029 1 0.33816 0.583835 0.219836
19030 1 0.380398 0.595902 0.195526
19031 1 0.366304 0.923531 0.219858
19573 1 0.324059 0.410852 0.244164
19574 1 0.352204 0.750545 0.244184
19576 1 0.380353 0.0908917 0.244212
19579 1 0.324059 0.910852 0.244164
19580 1 0.352204 0.250545 0.244184
19582 1 0.380353 0.590892 0.244212
19026 1 0.394451 0.763746 0.219885
19032 1 0.394451 0.263746 0.219885
19033 1 0.408541 0.435882 0.195549
19034 1 0.436682 0.776178 0.19557
19035 1 0.422597 0.104419 0.219913
19039 1 0.408541 0.935882 0.195549
19040 1 0.436682 0.276178 0.19557
19041 1 0.422597 0.604419 0.219913
19585 1 0.408505 0.431868 0.244244
19586 1 0.436658 0.773387 0.244274
19591 1 0.408505 0.931868 0.244244
19592 1 0.436658 0.273387 0.244274
19036 1 0.464822 0.116689 0.195583
19037 1 0.450743 0.445444 0.219935
19038 1 0.478888 0.786701 0.219946
19042 1 0.464822 0.616689 0.195583
19043 1 0.450743 0.945444 0.219935
19044 1 0.478888 0.286701 0.219946
19588 1 0.46481 0.115306 0.244296
19594 1 0.46481 0.615306 0.244296
19045 1 0.49296 0.45731 0.195587
19051 1 0.49296 0.95731 0.195587
19597 1 0.492962 0.457442 0.244302
19603 1 0.492962 0.957442 0.244302
19530 3 0.0566827 0.704558 0.268473
19536 3 0.0566827 0.204559 0.268473
20080 3 0.0426091 0.0334407 0.292845
20086 3 0.0426091 0.53344 0.292845
19539 3 0.0848298 0.0400494 0.268473
19541 1 0.113126 0.375956 0.268591
19545 3 0.0848298 0.540049 0.268473
19547 1 0.113126 0.875956 0.268591
20089 3 0.0707563 0.368688 0.292845
20090 1 0.099079 0.704258 0.292917
20092 1 0.127163 0.0401721 0.29291
20095 3 0.0707563 0.868688 0.292845
20096 1 0.099079 0.204258 0.292917
20098 1 0.127163 0.540172 0.29291
19542 1 0.141239 0.712407 0.26861
19548 1 0.141239 0.212407 0.26861
19551 1 0.169367 0.0488766 0.268587
19557 1 0.169367 0.548877 0.268587
20101 1 0.155289 0.376511 0.292922
20102 1 0.1834 0.713037 0.292899
20107 1 0.155289 0.876511 0.292922
20108 1 0.1834 0.213037 0.292899
19553 1 0.19747 0.385576 0.268541
19554 1 0.225579 0.722691 0.268513
19559 1 0.19747 0.885576 0.268541
19560 1 0.225579 0.222691 0.268513
19563 1 0.253697 0.0603417 0.268498
19569 1 0.253697 0.560342 0.268498
20119 1 0.239616 0.887153 0.292848
20104 1 0.211507 0.0498592 0.292871
20110 1 0.211507 0.549859 0.292871
20113 1 0.239616 0.387153 0.292848
19565 1 0.281824 0.398549 0.268491
19566 1 0.309957 0.73739 0.268493
19571 1 0.281824 0.898549 0.268491
19572 1 0.309957 0.23739 0.268493
20122 1 0.295856 0.563529 0.292826
20120 1 0.267732 0.225012 0.292832
20114 1 0.267732 0.725012 0.292832
20116 1 0.295856 0.0635285 0.292826
20134 1 0.380288 0.584094 0.292876
20132 1 0.352133 0.242954 0.292847
20131 1 0.323989 0.902799 0.29283
20128 1 0.380288 0.0840941 0.292876
19575 1 0.338098 0.0769478 0.268506
20126 1 0.352133 0.742954 0.292847
19577 1 0.366247 0.417289 0.268531
20125 1 0.323989 0.402799 0.29283
19581 1 0.338098 0.576948 0.268506
19583 1 0.366247 0.917289 0.268531
20144 1 0.43662 0.269409 0.292956
20143 1 0.408451 0.926268 0.292916
20138 1 0.43662 0.769409 0.292956
20137 1 0.408451 0.426268 0.292916
19578 1 0.394402 0.758442 0.268565
19584 1 0.394402 0.258442 0.268565
19587 1 0.422561 0.100373 0.268602
19593 1 0.422561 0.600373 0.268602
20146 1 0.464792 0.613301 0.292988
20140 1 0.464792 0.113301 0.292988
19589 1 0.450722 0.442951 0.268633
19590 1 0.478883 0.785952 0.268651
19595 1 0.450722 0.942951 0.268633
19596 1 0.478883 0.285952 0.268651
20149 1 0.492965 0.457608 0.292999
20155 1 0.492965 0.957608 0.292999
20640 1 0.0567211 0.190685 0.365885
20639 3 0.0285356 0.854986 0.365958
20638 3 0.0426091 0.526128 0.341587
20634 1 0.0567211 0.690685 0.365885
20633 3 0.0285356 0.354986 0.365958
20632 3 0.0426091 0.0261281 0.341587
20081 3 0.0285356 0.362373 0.317216
20082 3 0.0566827 0.697371 0.317216
20087 3 0.0285356 0.862374 0.317216
20088 3 0.0566827 0.197371 0.317216
20651 1 0.113144 0.859572 0.365968
20650 1 0.127204 0.531645 0.34161
20649 1 0.0850558 0.52454 0.365956
20648 1 0.0991357 0.196038 0.341617
20647 1 0.071063 0.860545 0.341628
20645 1 0.113144 0.359572 0.365968
20644 1 0.127204 0.0316446 0.34161
20643 1 0.0850558 0.0245397 0.365956
20642 1 0.0991357 0.696038 0.341617
20641 1 0.071063 0.360545 0.341629
20091 1 0.0851569 0.0324413 0.317275
20093 1 0.113153 0.367961 0.317248
20097 1 0.0851569 0.532441 0.317275
20099 1 0.113153 0.867961 0.317248
20661 1 0.169319 0.530848 0.365954
20660 1 0.183375 0.20384 0.34159
20659 1 0.155281 0.867575 0.341603
20655 1 0.169319 0.0308483 0.365954
20654 1 0.183375 0.70384 0.34159
20653 1 0.155281 0.367575 0.341603
20652 1 0.141229 0.195022 0.365964
20646 1 0.141229 0.695022 0.365964
20094 1 0.141239 0.703974 0.317255
20100 1 0.141239 0.203974 0.317255
20103 1 0.169335 0.0403032 0.317249
20109 1 0.169335 0.540303 0.317249
20673 1 0.253594 0.540556 0.365884
20671 1 0.239568 0.877432 0.341543
20667 1 0.253594 0.0405558 0.365884
20665 1 0.239568 0.377432 0.341543
20664 1 0.225501 0.203533 0.365911
20663 1 0.197409 0.867004 0.365935
20662 1 0.21147 0.54042 0.341568
20658 1 0.225501 0.703533 0.365911
20657 1 0.197409 0.367004 0.365935
20656 1 0.21147 0.0404204 0.341568
20121 1 0.253646 0.551284 0.317183
20105 1 0.197438 0.376886 0.31723
20106 1 0.22554 0.713832 0.317205
20111 1 0.197438 0.876886 0.31723
20112 1 0.22554 0.213832 0.317205
20115 1 0.253646 0.0512836 0.317183
20676 1 0.309796 0.216671 0.365838
20675 1 0.281691 0.878203 0.365859
20674 1 0.29578 0.553291 0.341502
20672 1 0.26767 0.215007 0.34152
20670 1 0.309796 0.716671 0.365838
20669 1 0.281691 0.378203 0.365859
20668 1 0.29578 0.0532914 0.341502
20666 1 0.26767 0.715007 0.34152
20124 1 0.309881 0.228206 0.31716
20123 1 0.281759 0.889365 0.317167
20118 1 0.309881 0.728206 0.31716
20117 1 0.281759 0.389365 0.317167
20687 1 0.366048 0.897166 0.365824
20686 1 0.380189 0.574549 0.341517
20685 1 0.337913 0.556213 0.365824
20684 1 0.352035 0.232803 0.341497
20683 1 0.3239 0.89248 0.341493
20681 1 0.366048 0.397166 0.365824
20680 1 0.380189 0.0745493 0.341517
20679 1 0.337913 0.0562127 0.365824
20678 1 0.352035 0.732803 0.341497
20677 1 0.3239 0.39248 0.341493
20135 1 0.366164 0.908838 0.317184
20133 1 0.338016 0.567967 0.317165
20129 1 0.366164 0.408838 0.317184
20127 1 0.338016 0.0679667 0.317165
20697 1 0.422398 0.585059 0.365884
20696 1 0.436555 0.263173 0.341606
20695 1 0.408363 0.917964 0.341555
20691 1 0.422398 0.085059 0.365884
20690 1 0.436555 0.763173 0.341606
20689 1 0.408363 0.417964 0.341555
20688 1 0.394208 0.239965 0.365842
20682 1 0.394208 0.739965 0.365842
20145 1 0.422502 0.594461 0.317263
20139 1 0.422502 0.0944609 0.317263
20136 1 0.394326 0.250983 0.317218
20130 1 0.394326 0.750983 0.317218
20700 1 0.478847 0.282529 0.36598
20699 1 0.450615 0.932736 0.36594
20698 1 0.464758 0.609989 0.34165
20694 1 0.478847 0.782529 0.36598
20693 1 0.450615 0.432737 0.36594
20692 1 0.464758 0.109988 0.34165
20148 1 0.478872 0.284736 0.317334
20147 1 0.450685 0.939157 0.317307
20142 1 0.478872 0.784736 0.317334
20141 1 0.450685 0.439157 0.317307
20707 1 0.492966 0.957763 0.341667
20701 1 0.492966 0.457763 0.341667
21742 1 0.042659 0.51121 0.438991
21740 3 0.014462 0.176241 0.439072
21736 1 0.042659 0.0112099 0.438991
21734 3 0.014462 0.67624 0.439072
21192 1 0.057 0.180882 0.41471
21191 3 0.0285356 0.847197 0.414701
21190 3 0.0426091 0.518328 0.390329
21188 3 0.014462 0.183971 0.390329
21186 1 0.057 0.680882 0.41471
21185 3 0.0285356 0.347196 0.414701
21184 3 0.0426091 0.0183287 0.390329
21182 3 0.014462 0.68397 0.390329
21754 1 0.127175 0.512775 0.439053
21752 1 0.0990832 0.178309 0.439052
21751 1 0.0709942 0.844209 0.439049
21748 1 0.127175 0.0127752 0.439053
21746 1 0.0990832 0.678309 0.439052
21745 1 0.0709942 0.344209 0.439049
21203 1 0.113138 0.850283 0.414686
21202 1 0.127179 0.522582 0.390325
21201 1 0.0850628 0.515547 0.414677
21200 1 0.0990902 0.187489 0.390311
21199 1 0.071062 0.852807 0.390294
21197 1 0.113138 0.350283 0.414686
21196 1 0.127179 0.0225823 0.390325
21195 1 0.0850628 0.0155468 0.414677
21194 1 0.0990902 0.687489 0.390311
21193 1 0.071062 0.352807 0.390294
21764 1 0.183363 0.182434 0.439036
21763 1 0.155271 0.847505 0.439049
21758 1 0.183363 0.682434 0.439036
21757 1 0.155271 0.347505 0.439049
21213 1 0.16931 0.520481 0.414678
21212 1 0.183356 0.19367 0.390306
21211 1 0.155267 0.857986 0.39032
21207 1 0.16931 0.0204813 0.414678
21206 1 0.183356 0.69367 0.390306
21205 1 0.155267 0.357986 0.39032
21204 1 0.14122 0.185262 0.414687
21198 1 0.14122 0.685262 0.414687
21775 1 0.239538 0.853067 0.438992
21769 1 0.239538 0.353067 0.438992
21766 1 0.211452 0.517595 0.439016
21760 1 0.211452 0.0175946 0.439016
21225 1 0.25357 0.527967 0.414608
21223 1 0.239532 0.866102 0.390257
21219 1 0.25357 0.0279673 0.414608
21217 1 0.239532 0.366102 0.390257
21216 1 0.225486 0.191748 0.414636
21215 1 0.197399 0.855953 0.41466
21214 1 0.211445 0.529682 0.390284
21210 1 0.225486 0.691748 0.414636
21209 1 0.197399 0.355953 0.41466
21208 1 0.211445 0.0296821 0.390284
21778 1 0.295698 0.525372 0.438932
21776 1 0.26762 0.188941 0.438964
21772 1 0.295698 0.0253721 0.438932
21770 1 0.26762 0.688941 0.438964
21228 1 0.309737 0.202279 0.414545
21227 1 0.281653 0.864741 0.414578
21226 1 0.295712 0.540705 0.3902
21224 1 0.267621 0.203057 0.390229
21222 1 0.309737 0.702279 0.414545
21221 1 0.281653 0.364741 0.414578
21220 1 0.295712 0.040705 0.3902
21218 1 0.267621 0.703057 0.390229
21790 1 0.379928 0.541072 0.438815
21788 1 0.351848 0.200981 0.438857
21787 1 0.323773 0.862602 0.438897
21784 1 0.379928 0.0410719 0.438815
21782 1 0.351848 0.70098 0.438857
21781 1 0.323773 0.362602 0.438897
21239 1 0.365924 0.88098 0.414481
21238 1 0.380053 0.560793 0.390144
21237 1 0.337825 0.540884 0.414512
21236 1 0.351921 0.219165 0.390153
21235 1 0.32381 0.879299 0.390173
21233 1 0.365924 0.38098 0.414481
21232 1 0.380053 0.0607931 0.390144
21231 1 0.337825 0.0408835 0.414512
21230 1 0.351921 0.719165 0.390153
21229 1 0.32381 0.379299 0.390173
21800 1 0.436176 0.231731 0.438724
21799 1 0.408027 0.883871 0.438771
21794 1 0.436176 0.73173 0.438724
21793 1 0.408027 0.38387 0.438771
21249 1 0.422213 0.568996 0.414456
21248 1 0.436431 0.252385 0.3902
21247 1 0.408219 0.90488 0.390158
21243 1 0.422213 0.0689964 0.414456
21242 1 0.436431 0.752384 0.3902
21241 1 0.408219 0.40488 0.390158
21240 1 0.394047 0.223269 0.414459
21234 1 0.394047 0.723269 0.414459
21802 1 0.46449 0.589472 0.438762
21796 1 0.46449 0.089471 0.438762
21252 1 0.47879 0.277816 0.414564
21251 1 0.450459 0.920235 0.414496
21250 1 0.464688 0.603812 0.390262
21246 1 0.47879 0.777817 0.414564
21245 1 0.450459 0.420235 0.414496
21244 1 0.464688 0.103811 0.390262
21811 1 0.492964 0.958071 0.438847
21805 1 0.492964 0.45807 0.438847
21259 1 0.492966 0.957911 0.390288
21253 1 0.492966 0.457911 0.390288
21744 1 0.0569929 0.172709 0.463417
21743 3 0.0285356 0.83913 0.463443
21741 3 0.00038843 0.505472 0.463443
21738 1 0.0569929 0.672709 0.463417
21737 3 0.0285356 0.33913 0.463443
21735 3 0.00038843 0.00547294 0.463443
22286 3 0.014462 0.668325 0.487814
22288 1 0.0429014 0.00124546 0.48786
22292 3 0.014462 0.168326 0.487814
22294 1 0.0429014 0.501245 0.48786
21755 1 0.113138 0.840531 0.463419
21753 1 0.085038 0.506496 0.46341
21749 1 0.113138 0.340531 0.463419
21747 1 0.085038 0.00649568 0.46341
22297 1 0.0710199 0.334899 0.487784
22298 1 0.0991152 0.668548 0.487786
22300 1 0.127205 0.00236212 0.487788
22303 1 0.0710199 0.834899 0.487784
22304 1 0.0991152 0.168548 0.487786
22306 1 0.127205 0.502362 0.487788
21765 1 0.169333 0.509198 0.463411
21759 1 0.169333 0.00919832 0.463411
21756 1 0.141235 0.174788 0.463418
21750 1 0.141235 0.674788 0.463418
22309 1 0.155306 0.336298 0.487784
22310 1 0.183405 0.670295 0.487774
22315 1 0.155306 0.836298 0.487784
22316 1 0.183405 0.170295 0.487774
21777 1 0.253605 0.513471 0.463353
21771 1 0.253605 0.0134712 0.463353
21768 1 0.225518 0.178487 0.463377
21767 1 0.197427 0.843751 0.463396
21762 1 0.225518 0.678487 0.463377
21761 1 0.197427 0.343751 0.463396
22312 1 0.211503 0.00435243 0.487758
22318 1 0.211503 0.504352 0.487758
22321 1 0.239599 0.338502 0.48774
22327 1 0.239599 0.838502 0.48774
21780 1 0.309763 0.18461 0.463295
21779 1 0.281687 0.848792 0.463326
21774 1 0.309763 0.68461 0.463295
21773 1 0.281687 0.348792 0.463326
22322 1 0.267692 0.672775 0.487718
22324 1 0.295778 0.00724101 0.487695
22328 1 0.267692 0.172775 0.487718
22330 1 0.295778 0.507241 0.487695
21791 1 0.36589 0.858882 0.463217
21789 1 0.337831 0.521174 0.463259
21785 1 0.36589 0.358882 0.463217
21783 1 0.337831 0.021174 0.463259
22333 1 0.323857 0.342017 0.487668
22334 1 0.351924 0.677289 0.487639
22336 1 0.379969 0.0133503 0.487605
22339 1 0.323857 0.842017 0.487668
22340 1 0.351924 0.177289 0.487639
22342 1 0.379969 0.513351 0.487605
21801 1 0.421986 0.541244 0.46309
21795 1 0.421986 0.0412445 0.46309
21792 1 0.39394 0.198453 0.463164
21786 1 0.39394 0.698453 0.463164
22345 1 0.407975 0.35078 0.487558
22346 1 0.43594 0.690847 0.487491
22351 1 0.407975 0.85078 0.487558
22352 1 0.43594 0.190848 0.487491
21804 1 0.478589 0.262462 0.463041
21803 1 0.450102 0.89181 0.462968
21798 1 0.478589 0.762463 0.463041
21797 1 0.450102 0.391811 0.462968
22348 1 0.463992 0.0413711 0.487334
22354 1 0.463992 0.541371 0.487334
22357 1 0.492961 0.458196 0.487381
22363 1 0.492961 0.958196 0.487381
22287 3 0.00038843 0.997744 0.512186
22289 3 0.0285356 0.330943 0.512186
22290 1 0.0570702 0.663604 0.512172
22293 3 0.00038843 0.497744 0.512186
22295 3 0.0285356 0.830943 0.512186
22296 1 0.0570702 0.163604 0.512172
22838 3 0.014462 0.660377 0.536557
22839 3 0.00038843 0.990058 0.560928
22840 1 0.0429052 0.992679 0.536487
22841 3 0.0285356 0.322806 0.560928
22842 1 0.057002 0.654995 0.560911
22844 3 0.014462 0.160378 0.536557
22845 3 0.00038843 0.490057 0.560928
22846 1 0.0429052 0.492679 0.536487
22847 3 0.0285356 0.822806 0.560928
22848 1 0.057002 0.154995 0.560911
22299 1 0.0850997 0.996834 0.512166
22301 1 0.11318 0.330284 0.512163
22305 1 0.0850997 0.496834 0.512166
22307 1 0.11318 0.830284 0.512163
22849 1 0.0710338 0.325737 0.53655
22850 1 0.0991388 0.658734 0.536541
22851 1 0.0850684 0.987593 0.560915
22852 1 0.12724 0.991802 0.536532
22853 1 0.113193 0.320309 0.560902
22855 1 0.0710338 0.825737 0.53655
22856 1 0.0991388 0.158734 0.536541
22857 1 0.0850684 0.487593 0.560915
22858 1 0.12724 0.491802 0.536532
22859 1 0.113193 0.820309 0.560902
22302 1 0.141278 0.66381 0.512158
22308 1 0.141278 0.16381 0.512158
22311 1 0.169382 0.997308 0.512149
22317 1 0.169382 0.497308 0.512149
22854 1 0.141311 0.652961 0.560894
22860 1 0.141311 0.152961 0.560894
22861 1 0.155352 0.324858 0.536523
22862 1 0.183464 0.657804 0.536512
22863 1 0.16943 0.985475 0.560885
22867 1 0.155352 0.824858 0.536523
22868 1 0.183464 0.157804 0.536512
22869 1 0.16943 0.485475 0.560885
22313 1 0.197488 0.330771 0.512136
22314 1 0.225592 0.664184 0.512122
22319 1 0.197488 0.830771 0.512136
22320 1 0.225592 0.164184 0.512122
22323 1 0.253696 0.997542 0.512105
22329 1 0.253696 0.497542 0.512105
22864 1 0.211578 0.990607 0.536499
22865 1 0.197551 0.317785 0.560873
22866 1 0.225673 0.649822 0.56086
22870 1 0.211578 0.490607 0.536499
22871 1 0.197551 0.817785 0.560873
22872 1 0.225673 0.149822 0.56086
22873 1 0.239692 0.323216 0.536485
22875 1 0.253796 0.981488 0.560849
22879 1 0.239692 0.823216 0.536485
22881 1 0.253796 0.481488 0.560849
22325 1 0.281798 0.330828 0.512087
22326 1 0.309895 0.664036 0.51207
22331 1 0.281798 0.830828 0.512087
22332 1 0.309895 0.164036 0.51207
22874 1 0.267806 0.655569 0.536471
22876 1 0.29592 0.987566 0.53646
22877 1 0.281921 0.312648 0.560841
22878 1 0.310045 0.643096 0.560838
22880 1 0.267806 0.155569 0.536471
22882 1 0.29592 0.487566 0.53646
22883 1 0.281921 0.812648 0.560841
22884 1 0.310045 0.143096 0.560838
22335 1 0.337986 0.997133 0.512054
22337 1 0.366066 0.329994 0.512043
22341 1 0.337986 0.497133 0.512054
22343 1 0.366066 0.829994 0.512043
22885 1 0.324032 0.319049 0.536453
22886 1 0.352141 0.649681 0.536455
22887 1 0.338169 0.972467 0.560847
22888 1 0.380247 0.978795 0.536475
22889 1 0.366291 0.300123 0.560876
22891 1 0.324032 0.819049 0.536453
22892 1 0.352141 0.149681 0.536455
22893 1 0.338169 0.472467 0.560847
22894 1 0.380247 0.478795 0.536475
22895 1 0.366291 0.800124 0.560876
22338 1 0.394127 0.662321 0.512038
22344 1 0.394127 0.162321 0.512038
22347 1 0.422164 0.993258 0.512051
22353 1 0.422164 0.493257 0.512051
22890 1 0.394408 0.624939 0.560942
22896 1 0.394408 0.124939 0.560942
22897 1 0.408351 0.304985 0.536531
22898 1 0.436475 0.624943 0.536657
22899 1 0.422523 0.944896 0.561073
22903 1 0.408351 0.804985 0.536531
22904 1 0.436475 0.124942 0.536657
22905 1 0.422523 0.444897 0.561073
22349 1 0.450247 0.320428 0.512116
22350 1 0.478521 0.624949 0.512385
22355 1 0.450247 0.820428 0.512116
22356 1 0.478521 0.124949 0.512385
22900 1 0.464617 0.929464 0.537001
22901 1 0.450633 0.256633 0.561351
22902 1 0.478794 0.559051 0.561702
22906 1 0.464617 0.429465 0.537001
22907 1 0.450633 0.756632 0.561351
22908 1 0.478794 0.0590509 0.561702
22909 1 0.492956 0.208531 0.53749
22915 1 0.492956 0.70853 0.53749
23390 3 0.014462 0.652553 0.585299
23392 3 0.0426091 0.985041 0.585299
23393 3 0.0285356 0.314883 0.609671
23394 1 0.0570003 0.645991 0.609592
23396 3 0.014462 0.152553 0.585299
23398 3 0.0426091 0.48504 0.585299
23399 3 0.0285356 0.814884 0.609671
23400 1 0.0570003 0.145991 0.609592
23401 1 0.0710047 0.316964 0.585264
23402 1 0.099139 0.649295 0.585261
23403 1 0.0851103 0.978512 0.609616
23404 1 0.127262 0.981577 0.585262
23405 1 0.113218 0.310663 0.609627
23407 1 0.0710047 0.816964 0.585264
23408 1 0.099139 0.149295 0.585261
23409 1 0.0851103 0.478512 0.609616
23410 1 0.127262 0.481577 0.585262
23411 1 0.113218 0.810663 0.609627
23406 1 0.141328 0.642584 0.609627
23412 1 0.141328 0.142584 0.609627
23413 1 0.155386 0.313753 0.585256
23414 1 0.18351 0.645689 0.585245
23415 1 0.169455 0.974266 0.609617
23419 1 0.155386 0.813753 0.585256
23420 1 0.18351 0.145689 0.585245
23421 1 0.169455 0.474266 0.609617
23416 1 0.211637 0.977311 0.585233
23417 1 0.197585 0.305599 0.609605
23418 1 0.225719 0.636497 0.609593
23422 1 0.211637 0.477311 0.585233
23423 1 0.197585 0.805599 0.609605
23424 1 0.225719 0.136497 0.609593
23425 1 0.239767 0.308511 0.585222
23427 1 0.253855 0.966811 0.609586
23431 1 0.239767 0.808511 0.585222
23433 1 0.253855 0.466811 0.609586
23426 1 0.267898 0.639137 0.585215
23428 1 0.296029 0.968992 0.585215
23429 1 0.28199 0.296371 0.609586
23430 1 0.310123 0.624925 0.609598
23432 1 0.267898 0.139137 0.585215
23434 1 0.296029 0.468992 0.585215
23435 1 0.28199 0.796371 0.609586
23436 1 0.310123 0.124925 0.609598
23437 1 0.32416 0.297758 0.585227
23438 1 0.352286 0.624933 0.585258
23439 1 0.338252 0.952102 0.609629
23440 1 0.380407 0.94975 0.585322
23441 1 0.366373 0.2774 0.609687
23443 1 0.32416 0.797758 0.585227
23444 1 0.352286 0.124932 0.585258
23445 1 0.338252 0.452102 0.609629
23446 1 0.380407 0.44975 0.585322
23447 1 0.366373 0.7774 0.609687
23442 1 0.394486 0.600196 0.609784
23448 1 0.394486 0.100196 0.609784
23449 1 0.40852 0.271087 0.585436
23450 1 0.436627 0.587566 0.585635
23451 1 0.422593 0.919891 0.609931
23455 1 0.40852 0.771086 0.585436
23456 1 0.436627 0.0875662 0.585635
23457 1 0.422593 0.419891 0.609931
23452 1 0.464754 0.899116 0.585883
23453 1 0.450711 0.23654 0.61011
23454 1 0.478866 0.551446 0.610232
23458 1 0.464753 0.399115 0.585883
23459 1 0.450711 0.73654 0.61011
23460 1 0.478866 0.0514465 0.610232
23461 1 0.492953 0.208657 0.585984
23467 1 0.492953 0.708659 0.585984
23942 3 0.014462 0.644993 0.634042
23944 3 0.0426091 0.977069 0.634042
23945 3 0.0285356 0.307316 0.658413
23946 3 0.0566827 0.639129 0.658413
23948 3 0.014462 0.144994 0.634042
23950 3 0.0426091 0.477068 0.634042
23951 3 0.0285356 0.807316 0.658413
23952 3 0.0566827 0.13913 0.658413
24496 3 0.0426091 0.969543 0.682784
24502 3 0.0426091 0.469542 0.682784
23953 1 0.0711061 0.308504 0.633967
23954 1 0.0991395 0.640283 0.634001
23955 1 0.0850339 0.970706 0.658345
23956 1 0.127258 0.972002 0.633998
23957 1 0.113149 0.302058 0.658368
23959 1 0.0711061 0.808504 0.633967
23960 1 0.0991395 0.140283 0.634001
23961 1 0.085034 0.470706 0.658345
23962 1 0.127258 0.472002 0.633998
23963 1 0.113149 0.802058 0.658368
24505 3 0.0707563 0.301092 0.682784
24506 1 0.0990801 0.632434 0.682705
24508 1 0.127195 0.963515 0.682725
24511 3 0.0707563 0.801092 0.682784
24512 1 0.0990801 0.132434 0.682705
24514 1 0.127195 0.463515 0.682725
23958 1 0.141295 0.633271 0.658358
23964 1 0.141295 0.133271 0.658358
23965 1 0.155382 0.303469 0.633989
23966 1 0.183518 0.634599 0.633975
23967 1 0.169436 0.964227 0.658345
23971 1 0.155382 0.803469 0.633989
23972 1 0.183518 0.134599 0.633975
23973 1 0.169436 0.464227 0.658345
24517 1 0.155347 0.294358 0.682711
24518 1 0.183494 0.624881 0.682696
24523 1 0.155347 0.794358 0.682711
24524 1 0.183494 0.124881 0.682696
23968 1 0.211656 0.965303 0.633962
23969 1 0.19758 0.29481 0.65833
23970 1 0.225723 0.624899 0.658319
23974 1 0.211656 0.465303 0.633962
23975 1 0.19758 0.79481 0.65833
23976 1 0.225723 0.124899 0.658319
23977 1 0.239795 0.295459 0.633954
23979 1 0.253865 0.954351 0.658317
23983 1 0.239795 0.795459 0.633954
23985 1 0.253865 0.454351 0.658317
24520 1 0.211643 0.954972 0.682682
24526 1 0.211643 0.454972 0.682682
24529 1 0.239788 0.284495 0.682678
24535 1 0.239788 0.784495 0.682678
23978 1 0.267934 0.624911 0.633953
23980 1 0.296068 0.953464 0.633965
23981 1 0.282002 0.283012 0.658327
23982 1 0.310132 0.610698 0.658352
23984 1 0.267934 0.124911 0.633953
23986 1 0.296068 0.453464 0.633965
23987 1 0.282002 0.783012 0.658327
23988 1 0.310132 0.110698 0.658352
24530 1 0.267928 0.613316 0.682686
24532 1 0.296061 0.941313 0.682707
24536 1 0.267928 0.113316 0.682686
24538 1 0.296061 0.441313 0.682707
23989 1 0.324197 0.280858 0.633993
23990 1 0.35232 0.606764 0.634044
23991 1 0.338256 0.9372 0.658397
23992 1 0.380434 0.93082 0.634125
23993 1 0.366373 0.262294 0.658465
23995 1 0.324197 0.780858 0.633993
23996 1 0.35232 0.106765 0.634044
23997 1 0.338256 0.4372 0.658397
23998 1 0.380434 0.43082 0.634125
23999 1 0.366373 0.762294 0.658465
24541 1 0.324188 0.268347 0.682745
24542 1 0.352307 0.594279 0.682803
24544 1 0.380424 0.919031 0.682879