ITEM: TIMESTEP
44
ITEM: NUMBER OF ATOMS
2354
ITEM: BOX BOUNDS ss pp ss
-4.1700547267000005e+01 4.1117760752000002e+01
-4.1208122699999999e-01 4.5329187729999996e+00
-4.0660457756000000e+01 4.0155737936000001e+01
ITEM: ATOMS id type xs ys zs
16806 3 0.310007 0.760358 0.0253797
16812 3 0.310007 0.260358 0.0253797
17354 3 0.267786 0.752664 0.0503597
17356 3 0.295933 0.0900476 0.0503597
17360 3 0.267786 0.252664 0.0503597
17362 3 0.295933 0.590047 0.0503597
16815 3 0.338154 0.0978753 0.0253797
16816 3 0.380375 0.105429 0.00039968
16817 3 0.366301 0.435554 0.0253797
16821 3 0.338154 0.597875 0.0253797
16822 3 0.380375 0.605429 0.00039968
16823 3 0.366301 0.935555 0.0253797
17365 3 0.32408 0.427633 0.0503597
17366 3 0.352228 0.765413 0.0503597
17368 1 0.380463 0.104455 0.0506824
17371 3 0.32408 0.927634 0.0503597
17372 3 0.352228 0.265414 0.0503597
17374 1 0.380463 0.604455 0.0506824
16818 3 0.394448 0.773378 0.0253797
16824 3 0.394448 0.273379 0.0253797
16825 3 0.408522 0.443112 0.00039968
16826 3 0.436669 0.780889 0.00039968
16827 3 0.422595 0.111324 0.0253797
16831 3 0.408522 0.943112 0.00039968
16832 3 0.436669 0.28089 0.00039968
16833 3 0.422595 0.611323 0.0253797
17377 1 0.408628 0.441943 0.0507095
17378 1 0.436706 0.779749 0.0505768
17383 1 0.408628 0.941943 0.0507095
17384 1 0.436706 0.279749 0.0505768
16828 3 0.464816 0.118736 0.00039968
16829 3 0.450743 0.449363 0.0253797
16830 3 0.47889 0.787467 0.0253797
16834 3 0.464816 0.618735 0.00039968
16835 3 0.450743 0.949363 0.0253797
16836 3 0.47889 0.287467 0.0253797
17380 1 0.464827 0.118022 0.0505589
17386 1 0.464827 0.618022 0.0505589
16837 3 0.492963 0.456621 0.00039968
16843 3 0.492963 0.956622 0.00039968
17389 1 0.492956 0.4564 0.0505563
17395 1 0.492956 0.9564 0.0505563
17895 3 0.169271 0.0663965 0.1253
17901 3 0.169271 0.566396 0.1253
17346 3 0.225565 0.74492 0.0753397
17352 3 0.225565 0.244921 0.0753397
17355 3 0.253713 0.0820878 0.0753397
17361 3 0.253713 0.582087 0.0753397
17896 3 0.211492 0.0741528 0.10032
17897 3 0.197418 0.403193 0.1253
17898 1 0.225519 0.739184 0.125386
17902 3 0.211492 0.574152 0.10032
17903 3 0.197418 0.903194 0.1253
17904 1 0.225519 0.239183 0.125386
17905 3 0.239639 0.411285 0.10032
17907 1 0.253842 0.0776941 0.12559
17911 3 0.239639 0.911285 0.10032
17913 1 0.253842 0.577694 0.12559
17357 3 0.28186 0.419489 0.0753397
17358 1 0.310092 0.757757 0.0756393
17363 3 0.28186 0.919489 0.0753397
17364 1 0.310092 0.257756 0.0756393
17906 1 0.26797 0.749169 0.100557
17908 1 0.296112 0.0868204 0.100672
17909 1 0.281961 0.415511 0.125552
17910 1 0.310118 0.753589 0.125553
17912 1 0.26797 0.249169 0.100557
17914 1 0.296112 0.58682 0.100672
17915 1 0.281961 0.915511 0.125552
17916 1 0.310118 0.253589 0.125553
17367 1 0.338296 0.0954476 0.075633
17369 1 0.36639 0.433478 0.0755792
17373 1 0.338296 0.595448 0.075633
17375 1 0.36639 0.933478 0.0755792
17917 1 0.324208 0.424695 0.100572
17918 1 0.352329 0.762836 0.100541
17919 1 0.338249 0.0916839 0.125521
17920 1 0.380449 0.101133 0.100552
17921 1 0.366375 0.430102 0.12551
17923 1 0.324208 0.924695 0.100572
17924 1 0.352329 0.262836 0.100541
17925 1 0.338249 0.591684 0.125521
17926 1 0.380449 0.601133 0.100552
17927 1 0.366375 0.930102 0.12551
17370 1 0.394534 0.771929 0.0756186
17376 1 0.394534 0.271929 0.0756186
17379 1 0.422668 0.11016 0.0755733
17385 1 0.422668 0.61016 0.0755733
17922 1 0.394507 0.768825 0.125513
17928 1 0.394507 0.268825 0.125513
17929 1 0.408592 0.439763 0.10056
17930 1 0.436718 0.778416 0.100532
17931 1 0.422642 0.107809 0.125511
17935 1 0.408592 0.939763 0.10056
17936 1 0.436718 0.278416 0.100532
17937 1 0.422642 0.607809 0.125511
17381 1 0.450776 0.448388 0.0755189
17382 1 0.478891 0.78692 0.0755045
17387 1 0.450776 0.948388 0.0755189
17388 1 0.478891 0.28692 0.0755045
17932 1 0.464832 0.117139 0.100508
17933 1 0.450768 0.44691 0.125501
17934 1 0.478887 0.786129 0.125496
17938 1 0.464832 0.617139 0.100508
17939 1 0.450768 0.94691 0.125501
17940 1 0.478887 0.286129 0.125496
17941 1 0.492947 0.456024 0.100505
17947 1 0.492947 0.956024 0.100505
18437 3 0.112977 0.387951 0.17526
18443 3 0.112977 0.887951 0.17526
18438 3 0.141124 0.724222 0.17526
18444 3 0.141124 0.224222 0.17526
18445 3 0.155198 0.395373 0.15028
18446 3 0.183345 0.732056 0.15028
18447 1 0.169225 0.059673 0.175333
18451 3 0.155198 0.895373 0.15028
18452 3 0.183345 0.232057 0.15028
18453 1 0.169225 0.559673 0.175333
18448 1 0.211656 0.0695047 0.150559
18449 1 0.197536 0.397565 0.175552
18450 1 0.225655 0.734832 0.175483
18454 1 0.211656 0.569505 0.150559
18455 1 0.197536 0.897565 0.175552
18456 1 0.225655 0.234832 0.175483
18457 1 0.239734 0.406183 0.150505
18459 1 0.253777 0.0720778 0.175435
18463 1 0.239734 0.906183 0.150505
18465 1 0.253777 0.572078 0.175435
18458 1 0.267855 0.7439 0.150486
18460 1 0.296007 0.0818544 0.150486
18461 1 0.28191 0.409852 0.175421
18462 1 0.310051 0.748022 0.175416
18464 1 0.267855 0.2439 0.150486
18466 1 0.296007 0.581854 0.150486
18467 1 0.28191 0.909852 0.175421
18468 1 0.310051 0.248022 0.175416
18469 1 0.324152 0.42012 0.150477
18470 1 0.352289 0.758593 0.150467
18471 1 0.338194 0.0865714 0.175417
18472 1 0.380424 0.0974246 0.15047
18473 1 0.366334 0.425515 0.175422
18475 1 0.324152 0.92012 0.150477
18476 1 0.352289 0.258593 0.150467
18477 1 0.338194 0.586571 0.175417
18478 1 0.380424 0.597425 0.15047
18479 1 0.366334 0.925515 0.175422
18474 1 0.394474 0.76489 0.175432
18480 1 0.394474 0.26489 0.175432
18481 1 0.408561 0.436623 0.150478
18482 1 0.436694 0.776096 0.150481
18483 1 0.422612 0.104656 0.175445
18487 1 0.408561 0.936623 0.150478
18488 1 0.436694 0.276096 0.150481
18489 1 0.422612 0.604656 0.175445
18484 1 0.464821 0.115737 0.150483
18485 1 0.450748 0.444725 0.175456
18486 1 0.478879 0.784996 0.175464
18490 1 0.464821 0.615737 0.150483
18491 1 0.450748 0.944725 0.175456
18492 1 0.478879 0.284996 0.175464
18493 1 0.492945 0.455496 0.150486
18499 1 0.492945 0.955496 0.150486
18986 3 0.0989034 0.716871 0.20024
18987 3 0.0848298 0.0457382 0.22522
18988 3 0.127051 0.0529659 0.20024
18989 3 0.112977 0.381632 0.22522
18992 3 0.0989034 0.216872 0.20024
18993 3 0.0848298 0.545738 0.22522
18994 3 0.127051 0.552965 0.20024
18995 3 0.112977 0.881633 0.22522
18990 1 0.141333 0.717889 0.225485
18996 1 0.141333 0.217889 0.225485
18997 1 0.155384 0.389806 0.200494
18998 1 0.183449 0.725821 0.200447
18999 1 0.169403 0.0543152 0.225418
19003 1 0.155384 0.889806 0.200494
19004 1 0.183449 0.225821 0.200447
19005 1 0.169403 0.554315 0.225418
19000 1 0.211562 0.0628798 0.200421
19001 1 0.1975 0.390793 0.22537
19002 1 0.225614 0.72779 0.225343
19006 1 0.211562 0.56288 0.200421
19007 1 0.1975 0.890793 0.22537
19008 1 0.225614 0.22779 0.225343
19009 1 0.239698 0.400096 0.200396
19011 1 0.253736 0.0651073 0.225319
19015 1 0.239698 0.900096 0.200396
19017 1 0.253736 0.565107 0.225319
19010 1 0.267822 0.7376 0.200367
19012 1 0.295956 0.0755779 0.200357
19013 1 0.281863 0.402858 0.225304
19014 1 0.309995 0.741161 0.225298
19016 1 0.267822 0.2376 0.200367
19018 1 0.295956 0.575578 0.200357
19019 1 0.281863 0.902858 0.225304
19020 1 0.309995 0.241161 0.225298
19021 1 0.324095 0.414064 0.200358
19022 1 0.352237 0.753045 0.200365
19023 1 0.338134 0.0800512 0.225302
19024 1 0.38038 0.0925442 0.200378
19025 1 0.366278 0.419566 0.225315
19027 1 0.324095 0.914064 0.200358
19028 1 0.352237 0.253045 0.200365
19029 1 0.338134 0.580051 0.225302
19030 1 0.38038 0.592544 0.200378
19031 1 0.366278 0.919566 0.225315
19026 1 0.394425 0.759719 0.225336
19032 1 0.394425 0.259719 0.225336
19033 1 0.408523 0.432552 0.200396
19034 1 0.436665 0.773002 0.200416
19035 1 0.422573 0.100482 0.225361
19039 1 0.408523 0.932552 0.200396
19040 1 0.436665 0.273002 0.200416
19041 1 0.422573 0.600482 0.225361
19036 1 0.464805 0.113798 0.200432
19037 1 0.450721 0.441769 0.225387
19038 1 0.478868 0.783446 0.225406
19042 1 0.464805 0.613798 0.200432
19043 1 0.450721 0.941769 0.225387
19044 1 0.478868 0.283446 0.225406
19045 1 0.492943 0.45481 0.200443
19051 1 0.492943 0.95481 0.200443
19530 3 0.0566827 0.703422 0.27518
19536 3 0.0566827 0.203423 0.27518
20080 3 0.0426091 0.0322972 0.30016
20086 3 0.0426091 0.532297 0.30016
19537 3 0.0707563 0.374578 0.2502
19538 3 0.0989034 0.710254 0.2502
19539 3 0.0848298 0.0388615 0.27518
19540 1 0.127189 0.0460657 0.250328
19541 1 0.113122 0.374407 0.275267
19543 3 0.0707563 0.874579 0.2502
19544 3 0.0989034 0.210254 0.2502
19545 3 0.0848298 0.538861 0.27518
19546 1 0.127189 0.546066 0.250328
19547 1 0.113122 0.874407 0.275267
20089 3 0.0707563 0.367488 0.30016
20090 1 0.0990811 0.702753 0.300221
20092 1 0.127156 0.0382194 0.300196
20095 3 0.0707563 0.867489 0.30016
20096 1 0.0990811 0.202753 0.300221
20098 1 0.127156 0.538219 0.300196
19542 1 0.141204 0.710248 0.275258
19548 1 0.141204 0.210248 0.275258
19549 1 0.155298 0.382402 0.250349
19550 1 0.183425 0.718743 0.250333
19551 1 0.169337 0.0464607 0.275271
19555 1 0.155298 0.882402 0.250349
19556 1 0.183425 0.218743 0.250333
19557 1 0.169337 0.546461 0.275271
20101 1 0.155268 0.374025 0.300205
20102 1 0.183379 0.710158 0.300203
20107 1 0.155268 0.874025 0.300205
20108 1 0.183379 0.210158 0.300203
19552 1 0.211534 0.0553643 0.250297
19553 1 0.197453 0.382843 0.275253
19554 1 0.225568 0.719539 0.275231
19558 1 0.211534 0.555364 0.250297
19559 1 0.197453 0.882843 0.275253
19560 1 0.225568 0.219539 0.275231
19561 1 0.239651 0.392388 0.250273
19563 1 0.253682 0.0567001 0.275208
19567 1 0.239651 0.892388 0.250273
19569 1 0.253682 0.5567 0.275208
20104 1 0.21149 0.0465716 0.300189
20110 1 0.21149 0.546572 0.300189
20113 1 0.239598 0.383368 0.300168
20119 1 0.239598 0.883368 0.300168
19562 1 0.267771 0.729882 0.250254
19564 1 0.295897 0.0679182 0.250241
19565 1 0.2818 0.394397 0.27519
19566 1 0.309925 0.732737 0.27518
19568 1 0.267771 0.229882 0.250254
19570 1 0.295897 0.567918 0.250241
19571 1 0.2818 0.894397 0.27519
19572 1 0.309925 0.232737 0.27518
20114 1 0.267709 0.720664 0.300147
20116 1 0.295824 0.0585765 0.300129
20120 1 0.267709 0.220664 0.300147
20122 1 0.295824 0.558576 0.300129
19573 1 0.32403 0.40659 0.250239
19574 1 0.35217 0.745974 0.250247
19575 1 0.338059 0.0718311 0.275179
19576 1 0.380317 0.0861246 0.250266
19577 1 0.366202 0.411795 0.275191
19579 1 0.32403 0.90659 0.250239
19580 1 0.35217 0.245974 0.250247
19581 1 0.338059 0.571831 0.275179
19582 1 0.380317 0.586125 0.250266
19583 1 0.366202 0.911795 0.275191
20125 1 0.323948 0.397241 0.300118
20126 1 0.352083 0.736812 0.300118
20128 1 0.380231 0.077474 0.300134
20131 1 0.323948 0.897241 0.300118
20132 1 0.352083 0.236812 0.300118
20134 1 0.380231 0.577474 0.300134
20144 1 0.436564 0.262633 0.300208
20143 1 0.408392 0.91939 0.300165
19578 1 0.394355 0.752727 0.275216
19584 1 0.394355 0.252727 0.275216
19585 1 0.40847 0.427072 0.250294
19586 1 0.436626 0.768774 0.250327
19587 1 0.422516 0.0946733 0.275252
19591 1 0.40847 0.927072 0.250294
19592 1 0.436626 0.268774 0.250327
19593 1 0.422516 0.594673 0.275252
20137 1 0.408392 0.41939 0.300165
20138 1 0.436564 0.762633 0.300208
20146 1 0.464744 0.60709 0.300252
19588 1 0.464782 0.111103 0.250356
19589 1 0.450682 0.437573 0.275291
19590 1 0.47885 0.781217 0.275322
19594 1 0.464782 0.611103 0.250356
19595 1 0.450682 0.937573 0.275291
19596 1 0.47885 0.281217 0.275322
20140 1 0.464744 0.107091 0.300252
19597 1 0.492938 0.45386 0.250374
19603 1 0.492938 0.95386 0.250374
20149 1 0.492927 0.452423 0.300279
20155 1 0.492927 0.952423 0.300279
20640 1 0.0567256 0.189285 0.375025
20639 3 0.0285356 0.8538 0.3751
20638 3 0.0426091 0.524929 0.35012
20634 1 0.0567256 0.689285 0.375025
20633 3 0.0285356 0.3538 0.3751
20632 3 0.0426091 0.0249295 0.35012
20081 3 0.0285356 0.361229 0.32514
20082 3 0.0566827 0.696168 0.32514
20087 3 0.0285356 0.86123 0.32514
20088 3 0.0566827 0.196168 0.32514
20651 1 0.113155 0.8574 0.375108
20650 1 0.12721 0.529364 0.350134
20649 1 0.0850643 0.522793 0.375096
20648 1 0.0991426 0.194219 0.350145
20647 1 0.0710678 0.859067 0.350161
20645 1 0.113155 0.3574 0.375108
20644 1 0.12721 0.0293635 0.350134
20643 1 0.0850643 0.0227932 0.375096
20642 1 0.0991426 0.694219 0.350145
20641 1 0.0710678 0.359067 0.350161
20091 1 0.0851605 0.0309461 0.325196
20093 1 0.113156 0.366085 0.32516
20097 1 0.0851605 0.530946 0.325196
20099 1 0.113156 0.866085 0.32516
20661 1 0.169326 0.527572 0.375095
20660 1 0.183371 0.200466 0.350119
20659 1 0.155282 0.864766 0.350127
20655 1 0.169326 0.0275717 0.375095
20654 1 0.183371 0.700466 0.350119
20653 1 0.155282 0.364766 0.350127
20652 1 0.141238 0.192324 0.375103
20646 1 0.141238 0.692324 0.375103
20094 1 0.141235 0.701602 0.32516
20100 1 0.141235 0.201602 0.32516
20103 1 0.169324 0.0374142 0.325158
20109 1 0.169324 0.537414 0.325158
20673 1 0.253593 0.535229 0.375036
20671 1 0.239558 0.872856 0.350083
20667 1 0.253593 0.0352289 0.375036
20665 1 0.239558 0.372856 0.350083
20664 1 0.225503 0.198962 0.375061
20663 1 0.197414 0.863094 0.375081
20662 1 0.211463 0.536472 0.350104
20658 1 0.225503 0.698961 0.375061
20657 1 0.197414 0.363094 0.375081
20656 1 0.211463 0.0364716 0.350104
20105 1 0.197424 0.373506 0.32515
20106 1 0.225524 0.70993 0.325133
20111 1 0.197424 0.873506 0.32515
20112 1 0.225524 0.20993 0.325133
20115 1 0.253627 0.0467867 0.325111
20121 1 0.253627 0.546787 0.325111
20676 1 0.309777 0.209496 0.374977
20675 1 0.281684 0.872023 0.375007
20674 1 0.295754 0.547208 0.350031
20672 1 0.267654 0.209723 0.350057
20670 1 0.309777 0.709496 0.374977
20669 1 0.281684 0.372023 0.375007
20668 1 0.295754 0.0472079 0.350031
20666 1 0.267654 0.709723 0.350057
20117 1 0.281732 0.384204 0.325087
20118 1 0.309844 0.722322 0.325067
20123 1 0.281732 0.884204 0.325087
20124 1 0.309844 0.222322 0.325067
20687 1 0.365987 0.887545 0.374925
20686 1 0.380114 0.565561 0.349988
20685 1 0.337876 0.54789 0.374948
20684 1 0.351979 0.22483 0.34999
20683 1 0.323861 0.885491 0.350007
20681 1 0.365987 0.387545 0.374925
20680 1 0.380114 0.0655607 0.349988
20679 1 0.337876 0.0478898 0.374948
20678 1 0.351979 0.72483 0.34999
20677 1 0.323861 0.385491 0.350007
20127 1 0.337966 0.0613229 0.325054
20129 1 0.366102 0.401437 0.325055
20133 1 0.337966 0.561323 0.325054
20135 1 0.366102 0.901437 0.325055
20697 1 0.422283 0.572829 0.374929
20696 1 0.436461 0.253007 0.350047
20695 1 0.408273 0.908133 0.350005
20691 1 0.422283 0.0728292 0.374929
20690 1 0.436461 0.753008 0.350047
20689 1 0.408273 0.408133 0.350005
20688 1 0.394119 0.228955 0.374916
20682 1 0.394119 0.728954 0.374916
20145 1 0.422427 0.586139 0.32511
20130 1 0.394255 0.742954 0.325072
20136 1 0.394255 0.242954 0.325072
20139 1 0.422427 0.0861384 0.32511
20700 1 0.478747 0.271313 0.375035
20699 1 0.450493 0.920116 0.374972
20698 1 0.464675 0.600447 0.350103
20694 1 0.478747 0.771312 0.375035
20693 1 0.450493 0.420115 0.374972
20692 1 0.464675 0.100448 0.350103
20148 1 0.478816 0.277686 0.325204
20147 1 0.450616 0.931113 0.32516
20142 1 0.478816 0.777686 0.325204
20141 1 0.450616 0.431113 0.32516
20707 1 0.492904 0.950002 0.350144
20701 1 0.492904 0.450003 0.350144
21192 1 0.0570086 0.179368 0.425069
21191 3 0.0285356 0.845988 0.42506
21190 3 0.0426091 0.517093 0.40008
21188 3 0.014462 0.182804 0.40008
21186 1 0.0570086 0.679368 0.425069
21185 3 0.0285356 0.345988 0.42506
21184 3 0.0426091 0.0170933 0.40008
21182 3 0.014462 0.682803 0.40008
21203 1 0.113156 0.847895 0.42505
21202 1 0.127194 0.520029 0.400076
21201 1 0.0850772 0.513657 0.425037
21200 1 0.099103 0.185446 0.400062
21199 1 0.0710699 0.851175 0.400044
21197 1 0.113156 0.347895 0.42505
21196 1 0.127194 0.0200291 0.400076
21195 1 0.0850772 0.0136573 0.425037
21194 1 0.099103 0.685446 0.400062
21193 1 0.0710699 0.351175 0.400044
21213 1 0.169332 0.516891 0.425045
21212 1 0.18337 0.189887 0.400062
21211 1 0.155281 0.854849 0.400074
21207 1 0.169332 0.0168912 0.425045
21206 1 0.18337 0.689887 0.400062
21205 1 0.155281 0.354849 0.400074
21204 1 0.141239 0.182312 0.425052
21198 1 0.141239 0.682312 0.425052
21225 1 0.253603 0.521964 0.424986
21223 1 0.239547 0.860843 0.400022
21219 1 0.253603 0.0219644 0.424986
21217 1 0.239547 0.360843 0.400022
21216 1 0.225515 0.186662 0.425011
21215 1 0.197424 0.851658 0.425031
21214 1 0.211459 0.5252 0.400045
21210 1 0.225515 0.686662 0.425011
21209 1 0.197424 0.351658 0.425031
21208 1 0.211459 0.0251999 0.400045
21228 1 0.309766 0.193909 0.424924
21227 1 0.281687 0.857664 0.424957
21226 1 0.295719 0.533503 0.399962
21224 1 0.267634 0.196896 0.399994
21222 1 0.309766 0.693909 0.424924
21221 1 0.281687 0.357664 0.424957
21220 1 0.295719 0.0335029 0.399962
21218 1 0.267634 0.696896 0.399994
21239 1 0.365917 0.869109 0.424847
21238 1 0.379992 0.549126 0.399862
21237 1 0.337842 0.530934 0.424887
21236 1 0.351893 0.209241 0.399893
21235 1 0.323804 0.870848 0.399928
21233 1 0.365917 0.369109 0.424847
21232 1 0.379992 0.0491264 0.399862
21231 1 0.337842 0.0309337 0.424887
21230 1 0.351893 0.709241 0.399893
21229 1 0.323804 0.370848 0.399928
21249 1 0.422094 0.551621 0.424759
21248 1 0.436278 0.236738 0.399835
21247 1 0.408113 0.891211 0.399839
21243 1 0.422094 0.0516201 0.424759
21242 1 0.436277 0.736739 0.399835
21241 1 0.408113 0.391211 0.399839
21240 1 0.393996 0.209004 0.424804
21234 1 0.393996 0.709004 0.424804
21252 1 0.478553 0.256828 0.424751
21251 1 0.450241 0.8993 0.424711
21250 1 0.464521 0.587768 0.399877
21246 1 0.478553 0.756826 0.424751
21245 1 0.450241 0.399299 0.424711
21244 1 0.464521 0.0877689 0.399877
21259 1 0.492849 0.945108 0.399946
21253 1 0.492849 0.445109 0.399946
21744 1 0.0570126 0.171255 0.47498
21743 3 0.0285356 0.837923 0.47502
21742 1 0.0426657 0.509824 0.449955
21741 3 0.00038843 0.504333 0.47502
21740 3 0.014462 0.175065 0.45004
21738 1 0.0570126 0.671255 0.47498
21737 3 0.0285356 0.337922 0.47502
21736 1 0.0426657 0.00982413 0.449955
21735 3 0.00038843 0.00433362 0.47502
21734 3 0.014462 0.675064 0.45004
22286 3 0.014462 0.667163 0.5
22288 1 0.0429328 5.96025e-05 0.499995
22292 3 0.014462 0.167163 0.5
22294 1 0.0429328 0.50006 0.499995
21755 1 0.113152 0.838082 0.475011
21754 1 0.127195 0.510051 0.450031
21753 1 0.085052 0.504564 0.474999
21752 1 0.0991008 0.176127 0.450027
21751 1 0.0710104 0.842512 0.450016
21749 1 0.113152 0.338082 0.475011
21748 1 0.127195 0.0100511 0.450031
21747 1 0.085052 0.00456376 0.474999
21746 1 0.0991008 0.676127 0.450027
21745 1 0.0710104 0.342512 0.450016
22297 1 0.0710178 0.333252 0.499997
22298 1 0.099116 0.66642 0.499994
22300 1 0.127217 0.999693 0.499988
22303 1 0.0710178 0.833252 0.499997
22304 1 0.099116 0.16642 0.499994
22306 1 0.127217 0.499693 0.499988
21765 1 0.169362 0.505514 0.474997
21764 1 0.183393 0.178407 0.450015
21763 1 0.155294 0.844171 0.450026
21759 1 0.169362 0.0055144 0.474997
21758 1 0.183393 0.678407 0.450015
21757 1 0.155294 0.344171 0.450026
21756 1 0.141256 0.171765 0.475007
21750 1 0.141256 0.671765 0.475007
22309 1 0.15533 0.333016 0.499978
22310 1 0.183442 0.666319 0.499966
22315 1 0.15533 0.833016 0.499978
22316 1 0.183442 0.166319 0.499966
21777 1 0.253669 0.507164 0.474947
21775 1 0.239583 0.847353 0.449978
21771 1 0.253669 0.00716395 0.474947
21769 1 0.239583 0.347353 0.449978
21768 1 0.225569 0.173199 0.474967
21767 1 0.197467 0.839324 0.474984
21766 1 0.211489 0.512791 0.449999
21762 1 0.225569 0.673199 0.474967
21761 1 0.197467 0.339324 0.474984
21760 1 0.211489 0.0127905 0.449999
22312 1 0.211554 0.999588 0.499952
22318 1 0.211554 0.499588 0.499952
22321 1 0.239664 0.332815 0.499936
22327 1 0.239664 0.832815 0.499936
21780 1 0.309852 0.175515 0.474902
21779 1 0.281763 0.841248 0.474926
21778 1 0.295757 0.517292 0.449926
21776 1 0.267673 0.182159 0.449954
21774 1 0.309852 0.675515 0.474902
21773 1 0.281763 0.341248 0.474926
21772 1 0.295757 0.0172919 0.449926
21770 1 0.267673 0.682159 0.449954
22322 1 0.267771 0.665981 0.499919
22324 1 0.295874 0.999066 0.499903
22328 1 0.267771 0.165981 0.499919
22330 1 0.295874 0.499066 0.499903
21791 1 0.365997 0.845163 0.474848
21790 1 0.37996 0.526794 0.449816
21789 1 0.337931 0.51009 0.474877
21788 1 0.351902 0.189276 0.449859
21787 1 0.323834 0.852915 0.449895
21785 1 0.365997 0.345164 0.474848
21784 1 0.37996 0.0267935 0.449816
21783 1 0.337931 0.0100897 0.474877
21782 1 0.351902 0.689277 0.449859
21781 1 0.323834 0.352915 0.449895
22333 1 0.323972 0.332068 0.499887
22334 1 0.352062 0.664961 0.499873
22336 1 0.38014 0.997641 0.499863
22339 1 0.323972 0.832068 0.499887
22340 1 0.352062 0.164961 0.499873
22342 1 0.38014 0.49764 0.499863
21801 1 0.422044 0.518327 0.474768
21800 1 0.436053 0.208825 0.449687
21799 1 0.408009 0.866191 0.449762
21795 1 0.422044 0.0183273 0.474768
21794 1 0.436053 0.708825 0.449687
21793 1 0.408009 0.366193 0.449762
21792 1 0.394041 0.181054 0.474814
21786 1 0.394041 0.681053 0.474814
22345 1 0.408199 0.329802 0.49986
22346 1 0.436234 0.660571 0.499876
22351 1 0.408199 0.829803 0.49986
22352 1 0.436234 0.160569 0.499876
21804 1 0.478058 0.208702 0.474539
21803 1 0.450007 0.85825 0.4747
21802 1 0.464167 0.559231 0.449563
21798 1 0.478058 0.708702 0.474539
21797 1 0.450007 0.358248 0.4747
21796 1 0.464167 0.0592327 0.449563
22348 1 0.464315 0.987582 0.499944
22354 1 0.464315 0.487583 0.499944
21811 1 0.492652 0.929649 0.44964
21805 1 0.492652 0.42965 0.44964
22287 3 0.00038843 0.996629 0.52498
22289 3 0.0285356 0.329762 0.52498
22290 1 0.0570209 0.662454 0.525014
22293 3 0.00038843 0.496629 0.52498
22295 3 0.0285356 0.829763 0.52498
22296 1 0.0570209 0.162454 0.525014
22838 3 0.014462 0.659251 0.54996
22840 1 0.0426795 0.992619 0.550035
22844 3 0.014462 0.159252 0.54996
22846 1 0.0426795 0.492619 0.550035
22299 1 0.0850708 0.995133 0.524992
22301 1 0.113182 0.328013 0.524971
22305 1 0.0850708 0.495133 0.524992
22307 1 0.113182 0.828013 0.524971
22849 1 0.0710381 0.324385 0.549977
22850 1 0.0991491 0.656763 0.549958
22852 1 0.127264 0.989296 0.549941
22855 1 0.0710381 0.824385 0.549977
22856 1 0.0991491 0.156763 0.549958
22858 1 0.127264 0.489296 0.549941
22302 1 0.141297 0.660944 0.524959
22308 1 0.141297 0.160944 0.524959
22311 1 0.169415 0.993817 0.524946
22317 1 0.169415 0.493817 0.524946
22861 1 0.155385 0.321814 0.549926
22862 1 0.183507 0.654168 0.549912
22867 1 0.155385 0.821814 0.549926
22868 1 0.183507 0.154168 0.549912
22313 1 0.197534 0.326573 0.524933
22314 1 0.225653 0.659187 0.524919
22319 1 0.197534 0.826573 0.524933
22320 1 0.225653 0.159187 0.524919
22323 1 0.25377 0.991606 0.524906
22329 1 0.25377 0.491606 0.524906
22864 1 0.211632 0.986301 0.549899
22870 1 0.211632 0.486301 0.549899
22873 1 0.239757 0.318155 0.549888
22879 1 0.239757 0.818155 0.549888
22325 1 0.281887 0.32376 0.524894
22326 1 0.310001 0.655553 0.524885
22331 1 0.281887 0.82376 0.524894
22332 1 0.310001 0.155553 0.524885
22874 1 0.267882 0.649625 0.549878
22876 1 0.296007 0.980586 0.549872
22880 1 0.267882 0.149625 0.549878
22882 1 0.296007 0.480586 0.549872
22335 1 0.338112 0.986827 0.52488
22337 1 0.36622 0.317265 0.524886
22341 1 0.338112 0.486827 0.52488
22343 1 0.36622 0.817266 0.524886
22885 1 0.324131 0.310823 0.549874
22886 1 0.352253 0.639991 0.549887
22888 1 0.380371 0.967451 0.54992
22891 1 0.324131 0.810824 0.549874
22892 1 0.352253 0.13999 0.549887
22894 1 0.380371 0.467452 0.54992
22338 1 0.394323 0.646195 0.524909
22344 1 0.394323 0.146194 0.524909
22347 1 0.422424 0.972194 0.524969
22353 1 0.422424 0.472196 0.524969
22897 1 0.408486 0.292064 0.549991
22898 1 0.436598 0.611816 0.550129
22903 1 0.408486 0.792063 0.549991
22904 1 0.436598 0.111818 0.550129
22349 1 0.450546 0.291957 0.525101
22350 1 0.478686 0.596216 0.525457
22355 1 0.450546 0.791955 0.525101
22356 1 0.478686 0.0962181 0.525457
22900 1 0.464706 0.923337 0.550417
22906 1 0.464706 0.423335 0.550417
22909 1 0.492865 0.225533 0.550779
22915 1 0.492865 0.725535 0.550779
22363 1 0.492585 0.791807 0.500223
22357 1 0.492585 0.291808 0.500223
22841 3 0.0285356 0.321676 0.57494
22842 1 0.0570333 0.653244 0.574924
22847 3 0.0285356 0.821677 0.57494
22848 1 0.0570333 0.153244 0.574924
23390 3 0.014462 0.651484 0.59992
23392 3 0.0426091 0.983915 0.59992
23393 3 0.0285356 0.313825 0.6249
23394 1 0.0567559 0.64637 0.624962
23396 3 0.014462 0.151485 0.59992
23398 3 0.0426091 0.483914 0.59992
23399 3 0.0285356 0.813825 0.6249
23400 1 0.0567559 0.14637 0.624962
22851 1 0.085129 0.985757 0.574953
22853 1 0.113236 0.318082 0.574927
22857 1 0.085129 0.485757 0.574953
22859 1 0.113236 0.818082 0.574927
23401 1 0.0711088 0.315532 0.599946
23402 1 0.0991793 0.647397 0.599919
23403 1 0.0851283 0.977287 0.62489
23404 1 0.127307 0.979319 0.59989
23405 1 0.113258 0.308853 0.624866
23407 1 0.0711087 0.815532 0.599946
23408 1 0.0991793 0.147397 0.599919
23409 1 0.0851283 0.477287 0.62489
23410 1 0.127307 0.479319 0.59989
23411 1 0.113258 0.808853 0.624866
22854 1 0.141349 0.650303 0.574908
22860 1 0.141349 0.150303 0.574908
22863 1 0.169473 0.982348 0.574892
22869 1 0.169473 0.482348 0.574892
23406 1 0.14138 0.640357 0.624853
23412 1 0.14138 0.140357 0.624853
23413 1 0.155431 0.311098 0.599872
23414 1 0.183558 0.642606 0.599857
23415 1 0.169506 0.971676 0.624838
23419 1 0.155431 0.811098 0.599872
23420 1 0.183558 0.142606 0.599857
23421 1 0.169506 0.471676 0.624838
22865 1 0.1976 0.314125 0.574878
22866 1 0.225729 0.645574 0.574866
22871 1 0.1976 0.814125 0.574878
22872 1 0.225729 0.145574 0.574866
22875 1 0.253859 0.976581 0.574858
22881 1 0.253859 0.476581 0.574858
23416 1 0.211688 0.973774 0.599844
23417 1 0.197635 0.302659 0.624824
23418 1 0.225768 0.633211 0.624812
23422 1 0.211688 0.473774 0.599844
23423 1 0.197635 0.802659 0.624824
23424 1 0.225768 0.133211 0.624812
23425 1 0.23982 0.304491 0.599835
23427 1 0.253902 0.963192 0.624807
23431 1 0.23982 0.804491 0.599835
23433 1 0.253902 0.463192 0.624807
22877 1 0.28199 0.307011 0.574854
22878 1 0.31012 0.636664 0.574858
22883 1 0.28199 0.807011 0.574854
22884 1 0.31012 0.136664 0.574858
23426 1 0.267954 0.634617 0.599832
23428 1 0.296087 0.963983 0.599836
23429 1 0.282036 0.292459 0.624811
23430 1 0.310167 0.620817 0.624827
23432 1 0.267954 0.134617 0.599832
23434 1 0.296087 0.463983 0.599836
23435 1 0.282036 0.792459 0.624811
23436 1 0.310167 0.120817 0.624827
22887 1 0.338248 0.965223 0.574874
22889 1 0.366372 0.292198 0.574911
22893 1 0.338248 0.465223 0.574874
22895 1 0.366372 0.792197 0.574911
23437 1 0.324217 0.292332 0.599853
23438 1 0.352342 0.619309 0.59989
23439 1 0.338292 0.948013 0.624861
23440 1 0.38046 0.944407 0.599954
23441 1 0.366411 0.273723 0.624919
23443 1 0.324217 0.792332 0.599853
23444 1 0.352342 0.119309 0.59989
23445 1 0.338292 0.448013 0.624861
23446 1 0.38046 0.444407 0.599954
23447 1 0.366411 0.773723 0.624919
22890 1 0.39449 0.616809 0.57498
22896 1 0.39449 0.11681 0.57498
22899 1 0.4226 0.937939 0.575102
22905 1 0.4226 0.437938 0.575102
23442 1 0.394523 0.59759 0.625007
23448 1 0.394522 0.0975892 0.625007
23449 1 0.40857 0.267005 0.600057
23450 1 0.436675 0.586499 0.600212
23451 1 0.422629 0.919324 0.625129
23455 1 0.40857 0.767005 0.600057
23456 1 0.436675 0.0864985 0.600212
23457 1 0.422629 0.419325 0.625129
22901 1 0.450704 0.254208 0.575309
22902 1 0.478829 0.565565 0.575566
22907 1 0.450704 0.75421 0.575309
22908 1 0.478829 0.0655635 0.575566
23452 1 0.46479 0.902957 0.600399
23453 1 0.450742 0.23899 0.625274
23454 1 0.478876 0.557231 0.625396
23458 1 0.46479 0.402958 0.600399
23459 1 0.450742 0.73899 0.625274
23460 1 0.478876 0.0572316 0.625396
23461 1 0.492942 0.217693 0.600527
23467 1 0.492942 0.717692 0.600527
23944 3 0.0426091 0.976027 0.64988
23945 3 0.0285356 0.306341 0.67486
23946 3 0.0566827 0.638113 0.67486
23950 3 0.0426091 0.476027 0.64988
23951 3 0.0285356 0.806342 0.67486
23952 3 0.0566827 0.138114 0.67486
23953 1 0.0711069 0.306797 0.649831
23954 1 0.0992216 0.638643 0.649839
23955 1 0.0851974 0.96912 0.674797
23956 1 0.127329 0.970081 0.649834
23957 1 0.113237 0.300313 0.674822
23959 1 0.0711069 0.806797 0.649831
23960 1 0.0992216 0.138643 0.649839
23961 1 0.0851974 0.46912 0.674797
23962 1 0.127329 0.470081 0.649834
23963 1 0.113237 0.800313 0.674822
23958 1 0.141359 0.631396 0.674806
23964 1 0.141359 0.131396 0.674806
23965 1 0.155441 0.301268 0.649822
23966 1 0.18357 0.632152 0.649804
23967 1 0.169487 0.962199 0.674787
23971 1 0.155441 0.801268 0.649822
23972 1 0.18357 0.132152 0.649804
23973 1 0.169487 0.462199 0.674787
23968 1 0.211703 0.96262 0.64979
23969 1 0.197625 0.292623 0.674767
23970 1 0.225764 0.622569 0.674755
23974 1 0.211703 0.46262 0.64979
23975 1 0.197625 0.792623 0.674767
23976 1 0.225764 0.122569 0.674755
23977 1 0.239838 0.292557 0.649781
23979 1 0.2539 0.951921 0.674753
23983 1 0.239838 0.792557 0.649781
23985 1 0.2539 0.451921 0.674753
23978 1 0.267972 0.621836 0.649783
23980 1 0.296104 0.95031 0.649797
23981 1 0.282034 0.280567 0.674764
23982 1 0.310162 0.608382 0.674791
23984 1 0.267972 0.121836 0.649783
23986 1 0.296104 0.45031 0.649797
23987 1 0.282034 0.780567 0.674764
23988 1 0.310162 0.108382 0.674791
23989 1 0.324231 0.277808 0.649828
23990 1 0.352351 0.604121 0.649879
23991 1 0.338285 0.935232 0.674835
23992 1 0.380465 0.929024 0.649953
23993 1 0.366401 0.260981 0.674898
23995 1 0.324231 0.777809 0.649828
23996 1 0.352351 0.104121 0.649879
23997 1 0.338285 0.435232 0.674835
23998 1 0.380465 0.429025 0.649953
23999 1 0.366401 0.760981 0.674898
23994 1 0.394514 0.585546 0.674982
24000 1 0.394514 0.0855465 0.674982
24001 1 0.408575 0.252378 0.650053
24002 1 0.436688 0.574223 0.65017
24003 1 0.422629 0.908964 0.675078
24007 1 0.408575 0.752378 0.650053
24008 1 0.436688 0.0742238 0.65017
24009 1 0.422629 0.408964 0.675078
24004 1 0.464813 0.8949 0.650279
24005 1 0.450752 0.231426 0.675174
24006 1 0.478886 0.553266 0.675245
24010 1 0.464813 0.3949 0.650279
24011 1 0.450752 0.731426 0.675174
24012 1 0.478886 0.0532659 0.675245
24013 1 0.492954 0.214936 0.650346
24019 1 0.492954 0.714936 0.650346
24496 3 0.0426091 0.968596 0.69984
24498 3 0.0566827 0.630786 0.72482
24502 3 0.0426091 0.468596 0.69984
24504 3 0.0566827 0.130786 0.72482
25066 1 0.127219 0.45465 0.749692
25064 3 0.0989034 0.12396 0.7498
25063 3 0.0707563 0.792939 0.7498