ITEM: TIMESTEP
46
ITEM: NUMBER OF ATOMS
2356
ITEM: BOX BOUNDS ss pp ss
-4.1700547267000005e+01 4.1117760752000002e+01
-4.1208122699999999e-01 4.5329187729999996e+00
-4.0744574000000000e+01 4.0071621692000001e+01
ITEM: ATOMS id type xs ys zs
16806 3 0.310007 0.760419 0.0253797
16812 3 0.310007 0.260419 0.0253797
17354 3 0.267786 0.75274 0.0503597
17356 3 0.295933 0.0901178 0.0503597
17360 3 0.267786 0.25274 0.0503597
17362 3 0.295933 0.590117 0.0503597
16815 3 0.338154 0.0979298 0.0253797
16817 3 0.366301 0.435601 0.0253797
16821 3 0.338154 0.597929 0.0253797
16823 3 0.366301 0.935601 0.0253797
17365 3 0.32408 0.427697 0.0503597
17366 3 0.352228 0.765469 0.0503597
17368 1 0.3805 0.103349 0.0504209
17371 3 0.32408 0.927698 0.0503597
17372 3 0.352228 0.26547 0.0503597
17374 1 0.3805 0.603349 0.0504209
16818 3 0.394448 0.773416 0.0253797
16824 3 0.394448 0.273417 0.0253797
16825 3 0.408522 0.443143 0.00039968
16826 3 0.436669 0.780911 0.00039968
16827 3 0.422595 0.111353 0.0253797
16831 3 0.408522 0.943143 0.00039968
16832 3 0.436669 0.280912 0.00039968
16833 3 0.422595 0.611352 0.0253797
17377 1 0.408663 0.442522 0.0506943
17378 1 0.436799 0.780145 0.050715
17383 1 0.408663 0.942522 0.0506943
17384 1 0.436799 0.280145 0.050715
16828 3 0.464816 0.118748 0.00039968
16829 3 0.450743 0.449382 0.0253797
16830 3 0.47889 0.787476 0.0253797
16834 3 0.464816 0.618748 0.00039968
16835 3 0.450743 0.949383 0.0253797
16836 3 0.47889 0.287476 0.0253797
17380 1 0.464862 0.118053 0.0505812
17386 1 0.464862 0.618053 0.0505812
16837 3 0.492963 0.456625 0.00039968
16843 3 0.492963 0.956625 0.00039968
17389 1 0.492974 0.456389 0.0505635
17395 1 0.492974 0.956389 0.0505635
17895 3 0.169271 0.0665054 0.1253
17901 3 0.169271 0.566505 0.1253
17346 3 0.225565 0.745009 0.0753397
17352 3 0.225565 0.24501 0.0753397
17355 3 0.253713 0.082173 0.0753397
17361 3 0.253713 0.582172 0.0753397
17896 3 0.211492 0.0742511 0.10032
17897 3 0.197418 0.403301 0.1253
17898 1 0.225519 0.739269 0.125386
17902 3 0.211492 0.574251 0.10032
17903 3 0.197418 0.903301 0.1253
17904 1 0.225519 0.239269 0.125386
17905 3 0.239639 0.41138 0.10032
17907 1 0.253844 0.077753 0.125591
17911 3 0.239639 0.91138 0.10032
17913 1 0.253844 0.577753 0.125591
17357 3 0.28186 0.419569 0.0753397
17358 1 0.310089 0.757763 0.0756441
17363 3 0.28186 0.919569 0.0753397
17364 1 0.310089 0.257763 0.0756441
17906 1 0.267971 0.749236 0.100557
17908 1 0.296112 0.086841 0.100676
17909 1 0.281964 0.415541 0.125553
17910 1 0.310124 0.753581 0.125555
17912 1 0.267971 0.249236 0.100557
17914 1 0.296112 0.586841 0.100676
17915 1 0.281964 0.915541 0.125553
17916 1 0.310124 0.253581 0.125555
17367 1 0.338288 0.0953327 0.0756739
17369 1 0.366413 0.43324 0.0754978
17373 1 0.338288 0.595333 0.0756739
17375 1 0.366413 0.93324 0.0754978
17917 1 0.32421 0.424629 0.100583
17918 1 0.352353 0.762827 0.100511
17919 1 0.338263 0.0917071 0.12551
17920 1 0.380461 0.101033 0.100496
17921 1 0.366388 0.430119 0.125482
17923 1 0.32421 0.924629 0.100583
17924 1 0.352353 0.262827 0.100511
17925 1 0.338263 0.591707 0.12551
17926 1 0.380461 0.601033 0.100496
17927 1 0.366388 0.930119 0.125482
17370 1 0.394567 0.77184 0.0755976
17376 1 0.394567 0.27184 0.0755976
17379 1 0.422706 0.110397 0.0756367
17385 1 0.422706 0.610397 0.0756367
17922 1 0.394511 0.768798 0.125496
17928 1 0.394511 0.268798 0.125496
17929 1 0.408601 0.439788 0.100563
17930 1 0.436745 0.778611 0.10058
17931 1 0.422651 0.107881 0.125527
17935 1 0.408601 0.939788 0.100563
17936 1 0.436745 0.278611 0.10058
17937 1 0.422651 0.607881 0.125527
17381 1 0.450827 0.448718 0.0755869
17382 1 0.478925 0.787019 0.075531
17387 1 0.450827 0.948718 0.0755869
17388 1 0.478925 0.287019 0.075531
17932 1 0.464866 0.117373 0.100552
17933 1 0.450787 0.447089 0.125533
17934 1 0.478909 0.786302 0.125525
17938 1 0.464866 0.617373 0.100552
17939 1 0.450787 0.947089 0.125533
17940 1 0.478909 0.286302 0.125525
17941 1 0.492973 0.456139 0.100528
17947 1 0.492973 0.956139 0.100528
18437 3 0.112977 0.388075 0.17526
18443 3 0.112977 0.888075 0.17526
18438 3 0.141124 0.724347 0.17526
18444 3 0.141124 0.224347 0.17526
18445 3 0.155198 0.39549 0.15028
18446 3 0.183345 0.732173 0.15028
18447 1 0.169225 0.0597846 0.175333
18451 3 0.155198 0.89549 0.15028
18452 3 0.183345 0.232174 0.15028
18453 1 0.169225 0.559785 0.175333
18448 1 0.211657 0.0695962 0.150558
18449 1 0.197537 0.397661 0.175552
18450 1 0.225657 0.734916 0.175482
18454 1 0.211657 0.569596 0.150558
18455 1 0.197537 0.897661 0.175552
18456 1 0.225657 0.234916 0.175482
18457 1 0.239736 0.40625 0.150505
18459 1 0.25378 0.0721458 0.175434
18463 1 0.239736 0.90625 0.150505
18465 1 0.25378 0.572146 0.175434
18458 1 0.267859 0.74395 0.150485
18460 1 0.296013 0.0818919 0.150485
18461 1 0.281915 0.409917 0.175419
18462 1 0.310058 0.748089 0.175412
18464 1 0.267859 0.24395 0.150485
18466 1 0.296013 0.581892 0.150485
18467 1 0.281915 0.909917 0.175419
18468 1 0.310058 0.248089 0.175412
18469 1 0.324162 0.420173 0.15047
18470 1 0.352299 0.758651 0.150452
18471 1 0.338203 0.0866471 0.175409
18472 1 0.38043 0.0974506 0.150455
18473 1 0.366341 0.425576 0.175411
18475 1 0.324162 0.920173 0.15047
18476 1 0.352299 0.258651 0.150452
18477 1 0.338203 0.586647 0.175409
18478 1 0.38043 0.597451 0.150455
18479 1 0.366341 0.925576 0.175411
18474 1 0.394477 0.764927 0.175427
18480 1 0.394477 0.264927 0.175427
18481 1 0.408564 0.436648 0.150476
18482 1 0.436702 0.776182 0.150498
18483 1 0.422616 0.104704 0.175451
18487 1 0.408564 0.936648 0.150476
18488 1 0.436702 0.276182 0.150498
18489 1 0.422616 0.604705 0.175451
18484 1 0.464835 0.115877 0.150507
18485 1 0.450755 0.444808 0.175471
18486 1 0.47889 0.785101 0.175483
18490 1 0.464835 0.615877 0.150507
18491 1 0.450755 0.944808 0.175471
18492 1 0.47889 0.285101 0.175483
18493 1 0.492961 0.455626 0.150508
18499 1 0.492961 0.955626 0.150508
18986 3 0.0989034 0.717001 0.20024
18987 3 0.0848298 0.0458741 0.22522
18988 3 0.127051 0.0530986 0.20024
18989 3 0.112977 0.381772 0.22522
18992 3 0.0989034 0.217002 0.20024
18993 3 0.0848298 0.545874 0.22522
18994 3 0.127051 0.553098 0.20024
18995 3 0.112977 0.881772 0.22522
18990 1 0.141333 0.718012 0.225485
18996 1 0.141333 0.218012 0.225485
18997 1 0.155384 0.389916 0.200494
18998 1 0.18345 0.725922 0.200446
18999 1 0.169404 0.0544244 0.225417
19003 1 0.155384 0.889916 0.200494
19004 1 0.18345 0.225922 0.200446
19005 1 0.169404 0.554424 0.225417
19000 1 0.211563 0.0629715 0.20042
19001 1 0.197501 0.390896 0.225369
19002 1 0.225616 0.727886 0.225342
19006 1 0.211563 0.562971 0.20042
19007 1 0.197501 0.890896 0.225369
19008 1 0.225616 0.227886 0.225342
19009 1 0.2397 0.40018 0.200395
19011 1 0.253739 0.0652013 0.225317
19015 1 0.2397 0.90018 0.200395
19017 1 0.253739 0.565201 0.225317
19010 1 0.267825 0.737682 0.200365
19012 1 0.295961 0.075659 0.200354
19013 1 0.281868 0.402946 0.2253
19014 1 0.310001 0.741247 0.225293
19016 1 0.267825 0.237681 0.200365
19018 1 0.295961 0.575659 0.200354
19019 1 0.281868 0.902946 0.2253
19020 1 0.310001 0.241247 0.225293
19021 1 0.324102 0.41415 0.200352
19022 1 0.352243 0.753129 0.200357
19023 1 0.33814 0.0801372 0.225296
19024 1 0.380384 0.0926029 0.200373
19025 1 0.366282 0.419632 0.22531
19027 1 0.324102 0.91415 0.200352
19028 1 0.352243 0.253129 0.200357
19029 1 0.33814 0.580137 0.225296
19030 1 0.380384 0.592603 0.200373
19031 1 0.366282 0.919632 0.22531
19026 1 0.394428 0.759761 0.225334
19032 1 0.394428 0.259761 0.225334
19033 1 0.408526 0.43259 0.200397
19034 1 0.436669 0.773051 0.200424
19035 1 0.422576 0.100515 0.225365
19039 1 0.408526 0.93259 0.200397
19040 1 0.436669 0.273051 0.200424
19041 1 0.422576 0.600515 0.225365
19036 1 0.464812 0.113867 0.200446
19037 1 0.450725 0.441813 0.225396
19038 1 0.478874 0.783505 0.225418
19042 1 0.464812 0.613867 0.200446
19043 1 0.450725 0.941813 0.225396
19044 1 0.478874 0.283505 0.225418
19045 1 0.492952 0.45489 0.200458
19051 1 0.492952 0.95489 0.200458
19530 3 0.0566827 0.703567 0.27518
19536 3 0.0566827 0.203568 0.27518
20080 3 0.0426091 0.0324451 0.30016
20086 3 0.0426091 0.532445 0.30016
19537 3 0.0707563 0.374719 0.2502
19538 3 0.0989034 0.710399 0.2502
19539 3 0.0848298 0.0390119 0.27518
19540 1 0.127189 0.0461914 0.250327
19541 1 0.113122 0.374538 0.275267
19543 3 0.0707563 0.87472 0.2502
19544 3 0.0989034 0.2104 0.2502
19545 3 0.0848298 0.539011 0.27518
19546 1 0.127189 0.546191 0.250327
19547 1 0.113122 0.874538 0.275267
20089 3 0.0707563 0.367642 0.30016
20090 1 0.0990812 0.70289 0.300221
20092 1 0.127156 0.0383395 0.300196
20095 3 0.0707563 0.867643 0.30016
20096 1 0.0990812 0.20289 0.300221
20098 1 0.127156 0.53834 0.300196
19542 1 0.141205 0.710364 0.275257
19548 1 0.141205 0.210364 0.275257
19549 1 0.155299 0.382514 0.250348
19550 1 0.183426 0.718845 0.250333
19551 1 0.169337 0.0465704 0.27527
19555 1 0.155299 0.882514 0.250348
19556 1 0.183426 0.218845 0.250333
19557 1 0.169337 0.54657 0.27527
20101 1 0.155269 0.374136 0.300205
20102 1 0.18338 0.710263 0.300202
20107 1 0.155269 0.874136 0.300205
20108 1 0.18338 0.210263 0.300202
19552 1 0.211536 0.0554651 0.250296
19553 1 0.197455 0.382947 0.275252
19554 1 0.22557 0.719639 0.275228
19558 1 0.211536 0.555465 0.250296
19559 1 0.197455 0.882947 0.275252
19560 1 0.22557 0.219639 0.275228
19561 1 0.239653 0.392486 0.250271
19563 1 0.253685 0.0567934 0.275205
19567 1 0.239653 0.892486 0.250271
19569 1 0.253685 0.556793 0.275205
20104 1 0.211492 0.0466685 0.300188
20110 1 0.211492 0.546668 0.300188
20113 1 0.239601 0.38346 0.300166
20119 1 0.239601 0.88346 0.300166
19562 1 0.267775 0.729976 0.25025
19564 1 0.295902 0.0680088 0.250237
19565 1 0.281804 0.39449 0.275186
19566 1 0.309929 0.73282 0.275176
19568 1 0.267775 0.229976 0.25025
19570 1 0.295902 0.568009 0.250237
19571 1 0.281804 0.89449 0.275186
19572 1 0.309929 0.23282 0.275176
20114 1 0.267712 0.720757 0.300143
20116 1 0.295827 0.0586626 0.300125
20120 1 0.267712 0.220757 0.300143
20122 1 0.295827 0.558663 0.300125
19573 1 0.324034 0.406676 0.250234
19574 1 0.352174 0.746041 0.250243
19575 1 0.338062 0.0718998 0.275175
19576 1 0.38032 0.0861717 0.250264
19577 1 0.366205 0.411845 0.275189
19579 1 0.324034 0.906676 0.250234
19580 1 0.352174 0.246041 0.250243
19581 1 0.338062 0.5719 0.275175
19582 1 0.38032 0.586172 0.250264
19583 1 0.366205 0.911845 0.275189
20125 1 0.323951 0.39731 0.300115
20126 1 0.352085 0.736871 0.300116
20128 1 0.380233 0.0775192 0.300133
20131 1 0.323951 0.89731 0.300115
20132 1 0.352085 0.236871 0.300116
20134 1 0.380233 0.577519 0.300133
20144 1 0.436566 0.262658 0.300212
20143 1 0.408394 0.919422 0.300167
19578 1 0.394357 0.752763 0.275217
19584 1 0.394357 0.252763 0.275217
19585 1 0.408472 0.427105 0.250296
19586 1 0.436628 0.768802 0.250333
19587 1 0.422518 0.0947017 0.275256
19591 1 0.408472 0.927105 0.250296
19592 1 0.436628 0.268802 0.250333
19593 1 0.422518 0.594702 0.275256
20137 1 0.408394 0.419422 0.300167
20138 1 0.436566 0.762658 0.300212
20146 1 0.464747 0.607113 0.300258
19588 1 0.464786 0.11114 0.250365
19589 1 0.450685 0.437598 0.275297
19590 1 0.478853 0.781248 0.27533
19594 1 0.464786 0.61114 0.250365
19595 1 0.450685 0.937598 0.275297
19596 1 0.478853 0.281249 0.27533
20140 1 0.464747 0.107114 0.300258
19597 1 0.492944 0.453903 0.250386
19603 1 0.492944 0.953902 0.250386
20149 1 0.492931 0.452452 0.300286
20155 1 0.492931 0.952452 0.300286
20640 1 0.0567258 0.189432 0.375024
20639 3 0.0285356 0.853959 0.3751
20638 3 0.0426091 0.525088 0.35012
20634 1 0.0567258 0.689432 0.375024
20633 3 0.0285356 0.353959 0.3751
20632 3 0.0426091 0.0250881 0.35012
20081 3 0.0285356 0.361379 0.32514
20082 3 0.0566827 0.696325 0.32514
20087 3 0.0285356 0.86138 0.32514
20088 3 0.0566827 0.196325 0.32514
20651 1 0.113155 0.857514 0.375107
20650 1 0.12721 0.529485 0.350133
20649 1 0.0850648 0.522922 0.375095
20648 1 0.0991428 0.194343 0.350144
20647 1 0.071068 0.859209 0.350161
20645 1 0.113155 0.357514 0.375107
20644 1 0.12721 0.0294847 0.350133
20643 1 0.0850648 0.0229224 0.375095
20642 1 0.0991428 0.694343 0.350144
20641 1 0.071068 0.359209 0.350161
20091 1 0.0851604 0.0310828 0.325196
20093 1 0.113156 0.36621 0.32516
20097 1 0.0851604 0.531083 0.325196
20099 1 0.113156 0.86621 0.32516
20661 1 0.169326 0.52767 0.375094
20660 1 0.183372 0.20057 0.350118
20659 1 0.155283 0.864871 0.350126
20655 1 0.169326 0.0276704 0.375094
20654 1 0.183372 0.70057 0.350118
20653 1 0.155283 0.364871 0.350126
20652 1 0.141239 0.192433 0.375102
20646 1 0.141239 0.692433 0.375102
20094 1 0.141236 0.701715 0.325159
20100 1 0.141236 0.201715 0.325159
20103 1 0.169325 0.0375197 0.325157
20109 1 0.169325 0.53752 0.325157
20673 1 0.253594 0.535319 0.375033
20671 1 0.23956 0.872952 0.35008
20667 1 0.253594 0.0353189 0.375033
20665 1 0.23956 0.372953 0.35008
20664 1 0.225504 0.199055 0.375059
20663 1 0.197414 0.863201 0.375079
20662 1 0.211465 0.536572 0.350102
20658 1 0.225504 0.699055 0.375059
20657 1 0.197414 0.363201 0.375079
20656 1 0.211465 0.0365725 0.350102
20105 1 0.197425 0.373609 0.325149
20106 1 0.225527 0.71003 0.32513
20111 1 0.197425 0.873609 0.325149
20112 1 0.225527 0.21003 0.32513
20115 1 0.253629 0.0468864 0.325107
20121 1 0.253629 0.546886 0.325107
20676 1 0.309778 0.209562 0.374975
20675 1 0.281685 0.872097 0.375005
20674 1 0.295756 0.54728 0.350028
20672 1 0.267656 0.209809 0.350054
20670 1 0.309778 0.709562 0.374975
20669 1 0.281685 0.372097 0.375005
20668 1 0.295756 0.0472805 0.350028
20666 1 0.267656 0.709809 0.350054
20117 1 0.281735 0.384293 0.325084
20118 1 0.309847 0.722394 0.325064
20123 1 0.281735 0.884293 0.325084
20124 1 0.309847 0.222395 0.325064
20687 1 0.365988 0.887601 0.374925
20686 1 0.380116 0.565609 0.349988
20685 1 0.337877 0.54795 0.374947
20684 1 0.35198 0.224884 0.34999
20683 1 0.323863 0.885554 0.350005
20681 1 0.365988 0.387601 0.374925
20680 1 0.380116 0.065609 0.349988
20679 1 0.337877 0.0479491 0.374947
20678 1 0.35198 0.724884 0.34999
20677 1 0.323863 0.385554 0.350005
20127 1 0.337968 0.0613806 0.325053
20129 1 0.366103 0.401489 0.325054
20133 1 0.337968 0.561381 0.325053
20135 1 0.366103 0.90149 0.325054
20697 1 0.422285 0.572871 0.374931
20696 1 0.436463 0.253041 0.35005
20695 1 0.408275 0.908169 0.350007
20691 1 0.422285 0.0728702 0.374931
20690 1 0.436463 0.753042 0.35005
20689 1 0.408275 0.40817 0.350007
20688 1 0.39412 0.229003 0.374917
20682 1 0.39412 0.729002 0.374917
20145 1 0.422428 0.586167 0.325112
20130 1 0.394256 0.742991 0.325073
20136 1 0.394256 0.242991 0.325073
20139 1 0.422428 0.0861663 0.325112
20700 1 0.478749 0.271345 0.37504
20699 1 0.450494 0.920157 0.374976
20698 1 0.464677 0.60048 0.350108
20694 1 0.478749 0.771344 0.37504
20693 1 0.450495 0.420156 0.374976
20692 1 0.464677 0.100482 0.350108
20148 1 0.478819 0.277713 0.325211
20147 1 0.450618 0.931141 0.325164
20141 1 0.450618 0.431141 0.325164
20142 1 0.478819 0.777712 0.325211
20707 1 0.492907 0.95003 0.350151
20701 1 0.492907 0.450031 0.350151
21192 1 0.0570083 0.179515 0.425069
21191 3 0.0285356 0.846154 0.42506
21190 3 0.0426091 0.51726 0.40008
21188 3 0.014462 0.182962 0.40008
21186 1 0.0570083 0.679515 0.425069
21185 3 0.0285356 0.346154 0.42506
21184 3 0.0426091 0.0172606 0.40008
21182 3 0.014462 0.682962 0.40008
21203 1 0.113156 0.848009 0.425049
21202 1 0.127194 0.520136 0.400076
21201 1 0.0850772 0.513785 0.425036
21200 1 0.0991032 0.185568 0.400061
21199 1 0.0710698 0.851315 0.400043
21197 1 0.113156 0.348009 0.425049
21196 1 0.127194 0.020136 0.400076
21195 1 0.0850772 0.0137846 0.425036
21194 1 0.0991032 0.685568 0.400061
21193 1 0.0710698 0.351315 0.400043
21213 1 0.169333 0.516988 0.425044
21212 1 0.183371 0.189987 0.400061
21211 1 0.155282 0.854947 0.400073
21207 1 0.169333 0.0169876 0.425044
21206 1 0.183371 0.689987 0.400061
21205 1 0.155282 0.354947 0.400073
21204 1 0.14124 0.182406 0.425051
21198 1 0.14124 0.682406 0.425051
21225 1 0.253602 0.522045 0.424983
21223 1 0.239548 0.860929 0.40002
21219 1 0.253602 0.0220444 0.424983
21217 1 0.239548 0.360929 0.40002
21216 1 0.225515 0.186749 0.425008
21215 1 0.197425 0.851752 0.425029
21214 1 0.21146 0.525296 0.400043
21210 1 0.225515 0.686749 0.425008
21209 1 0.197425 0.351752 0.425029
21208 1 0.21146 0.0252961 0.400043
21228 1 0.309766 0.193968 0.424923
21227 1 0.281687 0.857731 0.424955
21226 1 0.29572 0.533564 0.399961
21224 1 0.267634 0.196975 0.399992
21222 1 0.309767 0.693967 0.424923
21221 1 0.281687 0.357731 0.424955
21220 1 0.29572 0.0335641 0.39996
21218 1 0.267634 0.696975 0.399992
21239 1 0.365917 0.869167 0.424847
21238 1 0.379992 0.549181 0.399862
21237 1 0.337843 0.530992 0.424887
21236 1 0.351894 0.209298 0.399893
21235 1 0.323805 0.870906 0.399927
21233 1 0.365917 0.369165 0.424847
21232 1 0.379992 0.0491822 0.399862
21231 1 0.337843 0.0309922 0.424887
21230 1 0.351894 0.709298 0.399893
21229 1 0.323805 0.370907 0.399927
21249 1 0.422094 0.551678 0.424761
21248 1 0.436279 0.236788 0.399838
21247 1 0.408114 0.891264 0.399841
21243 1 0.422094 0.0516748 0.424761
21242 1 0.436279 0.736791 0.399838
21241 1 0.408114 0.391264 0.399841
21240 1 0.393997 0.209063 0.424805
21234 1 0.393997 0.709063 0.424805
21252 1 0.478555 0.256872 0.424756
21251 1 0.450243 0.899352 0.424715
21250 1 0.464523 0.587812 0.399881
21246 1 0.478555 0.756868 0.424756
21245 1 0.450243 0.399351 0.424715
21244 1 0.464523 0.0878138 0.399881
21259 1 0.492851 0.945142 0.399952
21253 1 0.492851 0.445144 0.399952
21744 1 0.0570127 0.171411 0.474979
21743 3 0.0285356 0.838093 0.47502
21742 1 0.0426658 0.509981 0.449954
21741 3 0.00038843 0.504493 0.47502
21740 3 0.014462 0.175228 0.45004
21738 1 0.0570127 0.671411 0.474979
21737 3 0.0285356 0.338092 0.47502
21736 1 0.0426658 0.00998081 0.449954
21735 3 0.00038843 0.00449377 0.47502
21734 3 0.014462 0.675228 0.45004
22286 3 0.014462 0.667328 0.5
22288 1 0.0429325 0.000222455 0.499995
22292 3 0.014462 0.167328 0.5
22294 1 0.0429325 0.500222 0.499995
21755 1 0.113152 0.838186 0.47501
21754 1 0.127195 0.510152 0.45003
21753 1 0.085052 0.504695 0.474998
21752 1 0.099101 0.176247 0.450026
21751 1 0.0710108 0.842652 0.450015
21749 1 0.113152 0.338186 0.47501
21748 1 0.127195 0.0101519 0.45003
21747 1 0.085052 0.00469514 0.474998
21746 1 0.099101 0.676247 0.450026
21745 1 0.0710108 0.342652 0.450015
22297 1 0.0710174 0.333398 0.499996
22298 1 0.0991157 0.666534 0.499993
22300 1 0.127217 0.999793 0.499986
22303 1 0.0710174 0.833398 0.499996
22304 1 0.0991157 0.166534 0.499993
22306 1 0.127217 0.499793 0.499986
21765 1 0.169362 0.505611 0.474996
21764 1 0.183393 0.178506 0.450014
21763 1 0.155295 0.844266 0.450025
21759 1 0.169362 0.00561103 0.474996
21758 1 0.183393 0.678506 0.450014
21757 1 0.155295 0.344266 0.450025
21756 1 0.141256 0.171861 0.475006
21750 1 0.141256 0.671861 0.475006
22309 1 0.15533 0.33311 0.499977
22310 1 0.183443 0.66641 0.499964
22315 1 0.15533 0.83311 0.499977
22316 1 0.183443 0.16641 0.499964
21777 1 0.253668 0.507243 0.474945
21775 1 0.239583 0.847444 0.449976
21771 1 0.253668 0.00724336 0.474945
21769 1 0.239583 0.347444 0.449976
21768 1 0.225569 0.173291 0.474965
21767 1 0.197467 0.839417 0.474982
21766 1 0.211489 0.512884 0.449997
21762 1 0.225569 0.673291 0.474965
21761 1 0.197467 0.339417 0.474982
21760 1 0.211489 0.0128843 0.449997
22312 1 0.211554 0.999681 0.49995
22318 1 0.211554 0.499681 0.49995
22321 1 0.239663 0.332901 0.499934
22327 1 0.239663 0.832901 0.499934
21780 1 0.309851 0.175582 0.474901
21779 1 0.281763 0.841314 0.474924
21778 1 0.295757 0.517357 0.449924
21776 1 0.267673 0.182233 0.449952
21774 1 0.309851 0.675582 0.474901
21773 1 0.281763 0.341314 0.474924
21772 1 0.295757 0.0173573 0.449924
21770 1 0.267673 0.682233 0.449952
22322 1 0.26777 0.666052 0.499917
22324 1 0.295873 0.999138 0.499901
22328 1 0.26777 0.166052 0.499917
22330 1 0.295873 0.499138 0.499901
21791 1 0.365997 0.845229 0.474848
21790 1 0.379961 0.526857 0.449816
21789 1 0.33793 0.510155 0.474876
21788 1 0.351902 0.189336 0.449858
21787 1 0.323834 0.852975 0.449894
21785 1 0.365997 0.34523 0.474848
21784 1 0.379961 0.0268561 0.449816
21783 1 0.33793 0.010154 0.474876
21782 1 0.351902 0.689338 0.449858
21781 1 0.323834 0.352975 0.449894
22333 1 0.323971 0.332141 0.499886
22334 1 0.352061 0.665029 0.499872
22336 1 0.38014 0.997704 0.499864
22339 1 0.323971 0.83214 0.499886
22340 1 0.352061 0.165029 0.499872
22342 1 0.38014 0.497702 0.499863
21801 1 0.422044 0.51838 0.47477
21800 1 0.436055 0.208878 0.449689
21799 1 0.408009 0.86625 0.449764
21795 1 0.422045 0.0183811 0.47477
21794 1 0.436054 0.708878 0.449689
21793 1 0.408009 0.366253 0.449764
21792 1 0.394041 0.181116 0.474815
21786 1 0.394041 0.681113 0.474815
22345 1 0.408199 0.329855 0.499862
22346 1 0.436234 0.660623 0.499878
22351 1 0.408199 0.829857 0.499862
22352 1 0.436234 0.160619 0.499878
21804 1 0.478059 0.208742 0.474543
21803 1 0.450008 0.8583 0.474703
21802 1 0.464168 0.559274 0.449567
21798 1 0.47806 0.708743 0.474543
21797 1 0.450008 0.358296 0.474703
21796 1 0.464168 0.0592779 0.449567
22348 1 0.464315 0.987617 0.499948
22354 1 0.464315 0.48762 0.499948
21811 1 0.492654 0.929674 0.449645
21805 1 0.492654 0.429676 0.449645
22287 3 0.00038843 0.996789 0.52498
22289 3 0.0285356 0.329932 0.52498
22290 1 0.0570207 0.662613 0.525013
22293 3 0.00038843 0.496789 0.52498
22295 3 0.0285356 0.829933 0.52498
22296 1 0.0570207 0.162613 0.525013
22838 3 0.014462 0.659415 0.54996
22840 1 0.0426796 0.992788 0.550035
22844 3 0.014462 0.159416 0.54996
22846 1 0.0426796 0.492788 0.550035
22299 1 0.0850704 0.995265 0.524991
22301 1 0.113182 0.328114 0.52497
22305 1 0.0850704 0.495265 0.524991
22307 1 0.113182 0.828114 0.52497
22849 1 0.071038 0.324535 0.549977
22850 1 0.0991486 0.656882 0.549957
22852 1 0.127263 0.989397 0.54994
22855 1 0.071038 0.824535 0.549977
22856 1 0.0991486 0.156882 0.549957
22858 1 0.127263 0.489397 0.54994
22302 1 0.141297 0.661039 0.524957
22308 1 0.141297 0.16104 0.524957
22311 1 0.169416 0.9939 0.524944
22317 1 0.169416 0.4939 0.524944
22861 1 0.155385 0.321905 0.549924
22862 1 0.183507 0.654249 0.54991
22867 1 0.155385 0.821905 0.549924
22868 1 0.183507 0.154249 0.54991
22313 1 0.197534 0.326663 0.524931
22314 1 0.225652 0.659281 0.524917
22319 1 0.197534 0.826663 0.524931
22320 1 0.225652 0.159281 0.524917
22323 1 0.253769 0.991689 0.524904
22329 1 0.253769 0.491689 0.524904
22864 1 0.211631 0.986392 0.549897
22870 1 0.211631 0.486392 0.549897
22873 1 0.239755 0.318241 0.549885
22879 1 0.239755 0.818241 0.549885
22325 1 0.281885 0.323836 0.524892
22326 1 0.309999 0.655627 0.524883
22331 1 0.281885 0.823836 0.524892
22332 1 0.309999 0.155628 0.524883
22874 1 0.26788 0.649706 0.549876
22876 1 0.296005 0.980661 0.54987
22880 1 0.26788 0.149706 0.549876
22882 1 0.296005 0.480661 0.54987
22335 1 0.338111 0.986897 0.524879
22337 1 0.366219 0.317327 0.524885
22341 1 0.338111 0.486897 0.524879
22343 1 0.366219 0.817329 0.524885
22885 1 0.324129 0.310896 0.549872
22886 1 0.352251 0.640057 0.549886
22888 1 0.38037 0.967508 0.54992
22891 1 0.324129 0.810897 0.549872
22892 1 0.352251 0.140056 0.549886
22894 1 0.38037 0.46751 0.54992
22338 1 0.394322 0.646253 0.52491
22344 1 0.394322 0.146251 0.52491
22347 1 0.422424 0.972249 0.52497
22353 1 0.422424 0.472252 0.52497
22897 1 0.408485 0.292122 0.549992
22898 1 0.436598 0.611865 0.550131
22903 1 0.408485 0.79212 0.549992
22904 1 0.436598 0.111868 0.550131
22349 1 0.450546 0.291996 0.525104
22350 1 0.478687 0.596218 0.525461
22355 1 0.450546 0.791992 0.525104
22356 1 0.478687 0.0962214 0.525461
22900 1 0.464706 0.923364 0.55042
22906 1 0.464705 0.423361 0.55042
22909 1 0.492865 0.225534 0.550784
22915 1 0.492865 0.725537 0.550784
22363 1 0.492586 0.791815 0.500228
22357 1 0.492586 0.291816 0.500229
22841 3 0.0285356 0.321843 0.57494
22842 1 0.0570331 0.653411 0.574924
22847 3 0.0285356 0.821843 0.57494
22848 1 0.0570332 0.153411 0.574924
23390 3 0.014462 0.651643 0.59992
23392 3 0.0426091 0.984083 0.59992
23393 3 0.0285356 0.313985 0.6249
23394 1 0.0567559 0.646539 0.624962
23396 3 0.014462 0.151644 0.59992
23398 3 0.0426091 0.484083 0.59992
23399 3 0.0285356 0.813985 0.6249
23400 1 0.0567559 0.146539 0.624962
22851 1 0.0851288 0.985897 0.574952
22853 1 0.113235 0.318196 0.574926
22857 1 0.0851288 0.485897 0.574952
22859 1 0.113235 0.818196 0.574926
23401 1 0.0711088 0.315692 0.599946
23402 1 0.0991788 0.64753 0.599918
23403 1 0.0851282 0.977443 0.62489
23404 1 0.127306 0.979426 0.599888
23405 1 0.113257 0.308981 0.624865
23407 1 0.0711088 0.815692 0.599946
23408 1 0.0991788 0.14753 0.599918
23409 1 0.0851282 0.477443 0.62489
23410 1 0.127306 0.479426 0.599888
23411 1 0.113257 0.808981 0.624865
22854 1 0.141349 0.650402 0.574906
22860 1 0.141349 0.150402 0.574906
22863 1 0.169473 0.982434 0.57489
22869 1 0.169473 0.482434 0.57489
23406 1 0.141379 0.640462 0.624851
23412 1 0.141379 0.140462 0.624851
23413 1 0.15543 0.311188 0.59987
23414 1 0.183557 0.642687 0.599855
23415 1 0.169505 0.971766 0.624836
23419 1 0.15543 0.811188 0.59987
23420 1 0.183557 0.142687 0.599855
23421 1 0.169505 0.471766 0.624836
22865 1 0.197599 0.314209 0.574876
22866 1 0.225728 0.645656 0.574864
22871 1 0.197599 0.814209 0.574876
22872 1 0.225728 0.145656 0.574864
22875 1 0.253858 0.976662 0.574855
22881 1 0.253858 0.476661 0.574855
23416 1 0.211687 0.973854 0.599842
23417 1 0.197634 0.302744 0.624821
23418 1 0.225767 0.633288 0.624809
23422 1 0.211687 0.473854 0.599842
23423 1 0.197634 0.802744 0.624821
23424 1 0.225767 0.133288 0.624809
23425 1 0.239819 0.304569 0.599832
23427 1 0.253901 0.963271 0.624804
23431 1 0.239819 0.804569 0.599832
23433 1 0.253901 0.463271 0.624804
22877 1 0.281988 0.30709 0.574851
22878 1 0.310119 0.63674 0.574856
22883 1 0.281988 0.80709 0.574851
22884 1 0.310119 0.13674 0.574856
23426 1 0.267952 0.634698 0.599828
23428 1 0.296085 0.964062 0.599833
23429 1 0.282034 0.292538 0.624808
23430 1 0.310165 0.620897 0.624825
23432 1 0.267952 0.134698 0.599828
23434 1 0.296085 0.464062 0.599833
23435 1 0.282034 0.792538 0.624808
23436 1 0.310165 0.120897 0.624825
22887 1 0.338247 0.965293 0.574873
22889 1 0.366371 0.292255 0.57491
22893 1 0.338247 0.465293 0.574873
22895 1 0.366371 0.792254 0.57491
23437 1 0.324215 0.29241 0.599852
23438 1 0.352341 0.619371 0.599889
23439 1 0.338291 0.948088 0.624859
23440 1 0.380459 0.94446 0.599954
23441 1 0.36641 0.273786 0.624918
23443 1 0.324215 0.792409 0.599852
23444 1 0.352341 0.119372 0.599889
23445 1 0.338291 0.448087 0.624859
23446 1 0.380459 0.444459 0.599954
23447 1 0.36641 0.773786 0.624918
22890 1 0.394489 0.616861 0.574981
22896 1 0.394489 0.116862 0.574981
22899 1 0.422599 0.937987 0.575103
22905 1 0.422599 0.437985 0.575103
23442 1 0.394521 0.597636 0.625007
23448 1 0.394521 0.0976351 0.625007
23449 1 0.408569 0.267043 0.600058
23450 1 0.436674 0.586531 0.600215
23451 1 0.422629 0.919354 0.625131
23455 1 0.408569 0.767045 0.600058
23456 1 0.436674 0.0865293 0.600214
23457 1 0.422629 0.419354 0.625131
22901 1 0.450703 0.25425 0.575311
22902 1 0.478828 0.565591 0.57557
22907 1 0.450704 0.754252 0.575311
22908 1 0.478828 0.0655886 0.57557
23452 1 0.46479 0.902977 0.600402
23453 1 0.450742 0.239003 0.625277
23454 1 0.478875 0.557223 0.625401
23458 1 0.46479 0.402979 0.600402
23459 1 0.450742 0.739002 0.625277
23460 1 0.478875 0.0572242 0.625401
23461 1 0.492942 0.217698 0.600531
23467 1 0.492942 0.717696 0.600531
23944 3 0.0426091 0.976187 0.64988
23945 3 0.0285356 0.306493 0.67486
23946 3 0.0566827 0.638272 0.67486
23950 3 0.0426091 0.476187 0.64988
23951 3 0.0285356 0.806493 0.67486
23952 3 0.0566827 0.138272 0.67486
23953 1 0.0711068 0.306962 0.649831
23954 1 0.099221 0.63879 0.649839
23955 1 0.0851973 0.969274 0.674798
23956 1 0.127328 0.970208 0.649832
23957 1 0.113237 0.300456 0.674821
23959 1 0.0711068 0.806962 0.649831
23960 1 0.099221 0.13879 0.649839
23961 1 0.0851973 0.469274 0.674798
23962 1 0.127328 0.470208 0.649832
23963 1 0.113237 0.800456 0.674821
23958 1 0.141358 0.631517 0.674804
23964 1 0.141358 0.131517 0.674804
23965 1 0.15544 0.301372 0.649819
23966 1 0.183569 0.632246 0.649801
23967 1 0.169486 0.962304 0.674784
23971 1 0.15544 0.801372 0.649819
23972 1 0.183569 0.132246 0.649801
23973 1 0.169486 0.462304 0.674784
23968 1 0.211702 0.962704 0.649787
23969 1 0.197624 0.292721 0.674764
23970 1 0.225763 0.622657 0.674752
23974 1 0.211702 0.462704 0.649787
23975 1 0.197624 0.792721 0.674764
23976 1 0.225763 0.122657 0.674752
23977 1 0.239837 0.292636 0.649778
23979 1 0.253899 0.952005 0.67475
23983 1 0.239837 0.792636 0.649778
23985 1 0.253899 0.452005 0.67475
23978 1 0.267971 0.621918 0.64978
23980 1 0.296103 0.950395 0.649794
23981 1 0.282032 0.280652 0.674761
23982 1 0.31016 0.608466 0.674787
23984 1 0.267971 0.121918 0.64978
23986 1 0.296103 0.450395 0.649794
23987 1 0.282032 0.780652 0.674761
23988 1 0.31016 0.108466 0.674787
23989 1 0.324229 0.277889 0.649825
23990 1 0.352349 0.604195 0.649877
23991 1 0.338283 0.935311 0.674832
23992 1 0.380463 0.929088 0.649953
23993 1 0.3664 0.261058 0.674897
23995 1 0.324229 0.77789 0.649825
23996 1 0.352349 0.104194 0.649877
23997 1 0.338283 0.435311 0.674832
23998 1 0.380463 0.429088 0.649953
23999 1 0.3664 0.761058 0.674897
23994 1 0.394513 0.585613 0.674982
24000 1 0.394513 0.0856134 0.674982
24001 1 0.408573 0.252422 0.650054
24002 1 0.436687 0.574248 0.650172
24003 1 0.422628 0.90901 0.67508
24007 1 0.408573 0.752421 0.650054
24008 1 0.436687 0.0742488 0.650172
24009 1 0.422628 0.409009 0.67508
24004 1 0.464812 0.894906 0.650283
24005 1 0.45075 0.231451 0.675178
24006 1 0.478884 0.553269 0.675251
24010 1 0.464812 0.394905 0.650283
24011 1 0.45075 0.731451 0.675178
24012 1 0.478884 0.053269 0.67525
24013 1 0.492953 0.214914 0.650351
24019 1 0.492954 0.714915 0.650351
24496 3 0.0426091 0.968746 0.69984
24498 3 0.0566827 0.630933 0.72482
24502 3 0.0426091 0.468745 0.69984
24504 3 0.0566827 0.130933 0.72482
25066 1 0.127219 0.454794 0.749693
25064 3 0.0989034 0.124108 0.7498
25063 3 0.0707563 0.793082 0.7498
25060 1 0.127219 0.954794 0.749693
25058 3 0.0989034 0.624107 0.7498
25057 3 0.0707563 0.293081 0.7498