ITEM: TIMESTEP
43
ITEM: NUMBER OF ATOMS
2356
ITEM: BOX BOUNDS ss pp ss
-4.1700547267000005e+01 4.1117760752000002e+01
-4.1208122699999999e-01 4.5329187729999996e+00
-4.1669852686000006e+01 4.1165132866000000e+01
ITEM: ATOMS id type xs ys zs
17356 3 0.295933 0.0908738 0.0491324
17362 3 0.295933 0.590873 0.0491324
16815 3 0.338154 0.0985159 0.0247612
16817 3 0.366301 0.436104 0.0247612
16821 3 0.338154 0.598515 0.0247612
16823 3 0.366301 0.936105 0.0247612
17365 3 0.32408 0.428381 0.0491324
17366 3 0.352228 0.76607 0.0491324
17368 3 0.380375 0.103923 0.0491324
17371 3 0.32408 0.928382 0.0491324
17372 3 0.352228 0.26607 0.0491324
17374 3 0.380375 0.603923 0.0491324
16818 3 0.394448 0.773828 0.0247612
16824 3 0.394448 0.273829 0.0247612
16827 3 0.422595 0.111666 0.0247612
16833 3 0.422595 0.611665 0.0247612
17377 1 0.408586 0.440727 0.0492262
17378 1 0.436811 0.779707 0.0492183
17383 1 0.408586 0.940727 0.0492262
17384 1 0.436811 0.279707 0.0492183
16828 3 0.464816 0.118887 0.00038994
16829 3 0.450743 0.44959 0.0247612
16830 3 0.47889 0.787574 0.0247612
16834 3 0.464816 0.618886 0.00038994
16835 3 0.450743 0.94959 0.0247612
16836 3 0.47889 0.287574 0.0247612
17380 1 0.464946 0.119308 0.0494802
17386 1 0.464946 0.619308 0.0494802
16837 3 0.492963 0.456663 0.00038994
16843 3 0.492963 0.956663 0.00038994
17389 1 0.493046 0.456989 0.0495158
17395 1 0.493046 0.956989 0.0495158
17355 3 0.253713 0.08309 0.0735036
17361 3 0.253713 0.583089 0.0735036
17896 3 0.211492 0.0753108 0.0978748
17897 3 0.197418 0.404461 0.122246
17898 3 0.225565 0.741499 0.122246
17902 3 0.211492 0.57531 0.0978748
17903 3 0.197418 0.904462 0.122246
17904 3 0.225565 0.2415 0.122246
17905 3 0.239639 0.412403 0.0978748
17907 1 0.253905 0.0794993 0.122475
17911 3 0.239639 0.912403 0.0978748
17913 1 0.253905 0.579499 0.122475
17357 3 0.28186 0.42043 0.0735036
17358 3 0.310007 0.75799 0.0735036
17363 3 0.28186 0.92043 0.0735036
17364 3 0.310007 0.25799 0.0735036
17906 3 0.267786 0.749742 0.0978748
17908 1 0.296063 0.0883231 0.0981221
17909 1 0.282057 0.417316 0.122574
17910 1 0.310141 0.75521 0.122522
17912 3 0.267786 0.249742 0.0978748
17914 1 0.296063 0.588323 0.0981221
17915 1 0.282057 0.917316 0.122574
17916 1 0.310141 0.25521 0.122522
17367 1 0.338231 0.0965391 0.0738137
17369 1 0.36642 0.434179 0.0738511
17373 1 0.338231 0.596539 0.0738137
17375 1 0.36642 0.934179 0.0738511
17917 1 0.32424 0.426121 0.0982403
17918 1 0.352346 0.764032 0.0981621
17919 1 0.33828 0.0934716 0.122531
17920 1 0.380483 0.10218 0.0981128
17921 1 0.366412 0.431764 0.122499
17923 1 0.32424 0.926121 0.0982403
17924 1 0.352346 0.264032 0.0981621
17925 1 0.33828 0.593472 0.122531
17926 1 0.380483 0.60218 0.0981128
17927 1 0.366412 0.931764 0.122499
17370 1 0.394524 0.771777 0.0737372
17376 1 0.394524 0.271777 0.0737372
17379 1 0.422701 0.110277 0.0737018
17385 1 0.422701 0.610277 0.0737018
17922 1 0.394537 0.770353 0.122466
17928 1 0.394537 0.270353 0.122466
17929 1 0.408608 0.440495 0.0980618
17930 1 0.436725 0.779217 0.0980976
17931 1 0.42265 0.109109 0.122465
17935 1 0.408608 0.940495 0.0980618
17936 1 0.436725 0.279217 0.0980976
17937 1 0.42265 0.609109 0.122465
17381 1 0.450843 0.449245 0.0738003
17382 1 0.478954 0.787898 0.0738512
17387 1 0.450843 0.949245 0.0738003
17388 1 0.478954 0.287898 0.0738512
17932 1 0.464854 0.11816 0.0981794
17933 1 0.45077 0.448128 0.122507
17934 1 0.478901 0.787294 0.122553
17938 1 0.464854 0.61816 0.0981794
17939 1 0.45077 0.948128 0.122507
17940 1 0.478901 0.287294 0.122553
17941 1 0.492978 0.456865 0.0982209
17947 1 0.492978 0.956865 0.0982209
18438 3 0.141124 0.725701 0.170988
18444 3 0.141124 0.225701 0.170988
18445 3 0.155198 0.396757 0.146617
18446 3 0.183345 0.733435 0.146617
18447 3 0.169271 0.0622471 0.170988
18451 3 0.155198 0.896757 0.146617
18452 3 0.183345 0.233435 0.146617
18453 3 0.169271 0.562247 0.170988
18448 1 0.211453 0.0694843 0.1467
18449 1 0.197606 0.399814 0.171253
18450 1 0.22568 0.736563 0.171207
18454 1 0.211453 0.569484 0.1467
18455 1 0.197606 0.899814 0.171253
18456 1 0.22568 0.236562 0.171207
18457 1 0.23978 0.408053 0.146899
18459 1 0.253798 0.074356 0.17119
18463 1 0.23978 0.908053 0.146899
18465 1 0.253798 0.574356 0.17119
18458 1 0.267902 0.745983 0.146859
18460 1 0.296054 0.0841015 0.146875
18461 1 0.281945 0.412382 0.171198
18462 1 0.31009 0.750721 0.171203
18464 1 0.267902 0.245983 0.146859
18466 1 0.296054 0.584102 0.146875
18467 1 0.281945 0.912382 0.171198
18468 1 0.31009 0.250721 0.171203
18469 1 0.324189 0.422282 0.146868
18470 1 0.352328 0.760845 0.146859
18471 1 0.338232 0.0893283 0.171202
18472 1 0.380459 0.0996019 0.146842
18473 1 0.366373 0.428283 0.171203
18475 1 0.324189 0.922282 0.146868
18476 1 0.352328 0.260845 0.146859
18477 1 0.338232 0.589328 0.171202
18478 1 0.380459 0.599602 0.146842
18479 1 0.366373 0.928283 0.171203
18474 1 0.394505 0.767532 0.171206
18480 1 0.394505 0.267532 0.171206
18481 1 0.408582 0.438595 0.146839
18482 1 0.436702 0.77782 0.146861
18483 1 0.422632 0.107062 0.17122
18487 1 0.408582 0.938595 0.146839
18488 1 0.436702 0.27782 0.146861
18489 1 0.422632 0.607062 0.17122
18484 1 0.464829 0.117281 0.146895
18485 1 0.450761 0.446859 0.171245
18486 1 0.478896 0.786868 0.171267
18490 1 0.464829 0.617281 0.146895
18491 1 0.450761 0.946859 0.171245
18492 1 0.478896 0.286868 0.171267
18493 1 0.492964 0.456864 0.146918
18499 1 0.492964 0.956864 0.146918
18987 3 0.0848298 0.0473485 0.219731
18988 3 0.127051 0.0545349 0.19536
18989 3 0.112977 0.383284 0.219731
18993 3 0.0848298 0.547348 0.219731
18994 3 0.127051 0.554534 0.19536
18995 3 0.112977 0.883284 0.219731
19537 3 0.0707563 0.376249 0.244102
19538 3 0.0989034 0.711977 0.244102
19540 1 0.127249 0.0487802 0.244349
19543 3 0.0707563 0.87625 0.244102
19544 3 0.0989034 0.211978 0.244102
19546 1 0.127249 0.54878 0.244349
18990 1 0.14109 0.71919 0.219845
18996 1 0.14109 0.21919 0.219845
18997 3 0.155198 0.390918 0.19536
18998 1 0.18353 0.727977 0.195644
18999 1 0.169318 0.0562159 0.219885
19003 3 0.155198 0.890919 0.19536
19004 1 0.18353 0.227977 0.195644
19005 1 0.169318 0.556216 0.219885
19549 1 0.155323 0.384676 0.244282
19550 1 0.183401 0.721188 0.244214
19555 1 0.155323 0.884676 0.244282
19556 1 0.183401 0.221188 0.244214
19000 1 0.211613 0.0652093 0.195578
19001 1 0.197475 0.393412 0.219904
19002 1 0.22563 0.730643 0.219888
19006 1 0.211613 0.565209 0.195578
19007 1 0.197475 0.893412 0.219904
19008 1 0.22563 0.230643 0.219888
19009 1 0.239723 0.402543 0.195535
19011 1 0.253758 0.068201 0.219863
19015 1 0.239723 0.902543 0.195535
19017 1 0.253758 0.568201 0.219863
19552 1 0.211537 0.0583432 0.244216
19558 1 0.211537 0.558343 0.244216
19561 1 0.239668 0.395739 0.244203
19567 1 0.239668 0.895739 0.244203
19010 1 0.26785 0.740402 0.195525
19012 1 0.295989 0.0786526 0.195529
19013 1 0.281894 0.406249 0.219859
19014 1 0.310034 0.744837 0.219866
19016 1 0.26785 0.240402 0.195525
19018 1 0.295989 0.578653 0.195529
19019 1 0.281894 0.906249 0.219859
19020 1 0.310034 0.244837 0.219866
19562 1 0.2678 0.733566 0.244195
19564 1 0.295935 0.0719646 0.244195
19568 1 0.2678 0.233566 0.244195
19570 1 0.295935 0.571965 0.244195
19021 1 0.324135 0.417317 0.195538
19022 1 0.352278 0.756393 0.195546
19023 1 0.338178 0.083946 0.219878
19024 1 0.380418 0.0958635 0.195557
19025 1 0.366323 0.423561 0.219895
19027 1 0.324135 0.917317 0.195538
19028 1 0.352278 0.256393 0.195546
19029 1 0.338178 0.583946 0.219878
19030 1 0.380418 0.595864 0.195557
19031 1 0.366323 0.923561 0.219895
19573 1 0.324076 0.410974 0.244205
19574 1 0.352221 0.750616 0.244222
19576 1 0.380369 0.0908932 0.244246
19579 1 0.324076 0.910974 0.244205
19580 1 0.352221 0.250616 0.244222
19582 1 0.380369 0.590893 0.244246
19026 1 0.394466 0.763668 0.219916
19032 1 0.394466 0.263668 0.219916
19033 1 0.408554 0.435704 0.195574
19034 1 0.436689 0.775887 0.195596
19035 1 0.422609 0.104236 0.219941
19039 1 0.408554 0.935704 0.195574
19040 1 0.436689 0.275887 0.195596
19041 1 0.422609 0.604236 0.219941
19585 1 0.408518 0.431784 0.244276
19586 1 0.436668 0.773225 0.244306
19591 1 0.408518 0.931784 0.244276
19592 1 0.436668 0.273225 0.244306
19036 1 0.464826 0.11635 0.195618
19037 1 0.450751 0.445189 0.219966
19038 1 0.478896 0.786419 0.219982
19042 1 0.464826 0.61635 0.195618
19043 1 0.450751 0.945189 0.219966
19044 1 0.478896 0.286419 0.219982
19588 1 0.46482 0.115091 0.244329
19594 1 0.46482 0.615091 0.244329
19045 1 0.492967 0.456992 0.19563
19051 1 0.492967 0.956992 0.19563
19597 1 0.492972 0.457201 0.244338
19603 1 0.492972 0.957201 0.244338
19530 3 0.0566827 0.705143 0.268473
19536 3 0.0566827 0.205143 0.268473
20080 3 0.0426091 0.0340563 0.292845
20086 3 0.0426091 0.534056 0.292845
19539 3 0.0848298 0.0406463 0.268473
19541 1 0.113229 0.3767 0.268712
19545 3 0.0848298 0.540646 0.268473
19547 1 0.113229 0.8767 0.268712
20089 3 0.0707563 0.369321 0.292845
20090 1 0.0992334 0.704618 0.292949
20092 1 0.127265 0.0406735 0.292976
20095 3 0.0707563 0.869322 0.292845
20096 1 0.0992334 0.204618 0.292949
20098 1 0.127265 0.540674 0.292976
19542 1 0.141307 0.71294 0.268648
19548 1 0.141307 0.21294 0.268648
19551 1 0.169388 0.0491575 0.26859
19557 1 0.169388 0.549158 0.26859
20101 1 0.155354 0.376885 0.292962
20102 1 0.183432 0.713307 0.292922
20107 1 0.155354 0.876885 0.292962
20108 1 0.183432 0.213307 0.292922
19553 1 0.197478 0.385808 0.268554
19554 1 0.22559 0.722972 0.268543
19559 1 0.197478 0.885808 0.268554
19560 1 0.22559 0.222972 0.268543
19563 1 0.253711 0.0605929 0.268533
19569 1 0.253711 0.560593 0.268533
20104 1 0.211524 0.0500912 0.292896
20110 1 0.211524 0.550091 0.292896
20113 1 0.23963 0.387394 0.292879
20119 1 0.23963 0.887394 0.292879
19565 1 0.281838 0.398748 0.268528
19566 1 0.309972 0.73754 0.268531
19571 1 0.281838 0.898748 0.268528
19572 1 0.309972 0.23754 0.268531
20114 1 0.267745 0.725239 0.292867
20116 1 0.295869 0.0637156 0.292861
20120 1 0.267745 0.225239 0.292867
20122 1 0.295869 0.563716 0.292861
19575 1 0.338113 0.0770543 0.268544
19577 1 0.366262 0.417348 0.268567
19581 1 0.338113 0.577054 0.268544
19583 1 0.366262 0.917348 0.268567
20134 1 0.380302 0.584147 0.29291
20132 1 0.352147 0.24306 0.292882
20131 1 0.324003 0.902948 0.292866
20125 1 0.324003 0.402948 0.292866
20126 1 0.352147 0.74306 0.292882
20128 1 0.380302 0.0841468 0.29291
20144 1 0.436633 0.269338 0.292989
20143 1 0.408465 0.926258 0.292948
20138 1 0.436633 0.769338 0.292989
19578 1 0.394416 0.758438 0.268598
20137 1 0.408465 0.426258 0.292948
19584 1 0.394416 0.258438 0.268598
19587 1 0.422574 0.100297 0.268633
19593 1 0.422574 0.600297 0.268633
20146 1 0.464804 0.613173 0.29302
20140 1 0.464804 0.113173 0.29302
19589 1 0.450734 0.442809 0.268666
19590 1 0.478894 0.785762 0.268685
19595 1 0.450734 0.942809 0.268666
19596 1 0.478894 0.285762 0.268685
20149 1 0.492977 0.45744 0.29303
20155 1 0.492977 0.957439 0.29303
20640 3 0.0566827 0.190361 0.365958
20639 3 0.0285356 0.855698 0.365958
20638 3 0.0426091 0.526818 0.341587
20634 3 0.0566827 0.69036 0.365958
20633 3 0.0285356 0.355697 0.365958
20632 3 0.0426091 0.026819 0.341587
20082 3 0.0566827 0.698036 0.317216
20088 3 0.0566827 0.198036 0.317216
20651 1 0.113089 0.86017 0.36597
20650 1 0.127199 0.532226 0.341648
20649 1 0.0849788 0.525079 0.365936
20648 1 0.0991145 0.196661 0.341618
20647 1 0.0708357 0.862133 0.341505
20645 1 0.113089 0.36017 0.36597
20644 1 0.127199 0.032226 0.341648
20643 1 0.0849788 0.0250793 0.365936
20642 1 0.0991145 0.696661 0.341618
20641 1 0.0708357 0.362133 0.341505
20091 1 0.0851394 0.0325427 0.317269
20093 1 0.113212 0.36841 0.317298
20097 1 0.0851394 0.532543 0.317269
20099 1 0.113212 0.86841 0.317298
20661 1 0.169314 0.531409 0.365987
20660 1 0.18339 0.204296 0.341628
20659 1 0.155294 0.868131 0.341647
20655 1 0.169314 0.0314093 0.365987
20654 1 0.18339 0.704296 0.341628
20653 1 0.155294 0.368131 0.341647
20652 1 0.141208 0.195623 0.365992
20646 1 0.141208 0.695623 0.365992
20094 1 0.141293 0.704504 0.31731
20100 1 0.141293 0.204504 0.31731
20103 1 0.169372 0.0407189 0.317289
20109 1 0.169372 0.540719 0.317289
20673 1 0.253602 0.540892 0.365916
20671 1 0.239579 0.877742 0.341576
20667 1 0.253602 0.0408924 0.365916
20665 1 0.239579 0.377742 0.341576
20664 1 0.225507 0.203934 0.365943
20663 1 0.197413 0.867476 0.365969
20662 1 0.211483 0.540787 0.341602
20658 1 0.225507 0.703934 0.365943
20657 1 0.197413 0.367476 0.365969
20656 1 0.211483 0.040787 0.341602
20105 1 0.197461 0.377199 0.317262
20106 1 0.225556 0.714102 0.317236
20111 1 0.197461 0.877199 0.317262
20112 1 0.225556 0.214102 0.317236
20115 1 0.253659 0.0515319 0.317216
20121 1 0.253659 0.551532 0.317216
20676 1 0.309808 0.216921 0.365869
20675 1 0.281701 0.878494 0.36589
20674 1 0.295791 0.553528 0.341535
20672 1 0.267681 0.215274 0.341553
20670 1 0.309808 0.716921 0.365869
20669 1 0.281701 0.378494 0.36589
20668 1 0.295791 0.0535276 0.341535
20666 1 0.267681 0.715274 0.341553
20117 1 0.281771 0.389585 0.317201
20118 1 0.309894 0.728394 0.317195
20123 1 0.281771 0.889585 0.317201
20124 1 0.309894 0.228394 0.317195
20687 1 0.366061 0.897313 0.365855
20686 1 0.380203 0.574648 0.341549
20685 1 0.337925 0.556416 0.365855
20684 1 0.352048 0.232963 0.341529
20683 1 0.323912 0.892684 0.341526
20681 1 0.366061 0.397313 0.365855
20680 1 0.380203 0.0746481 0.341549
20679 1 0.337925 0.0564163 0.365855
20678 1 0.352048 0.732963 0.341529
20677 1 0.323912 0.392684 0.341526
20135 1 0.366177 0.908943 0.317218
20133 1 0.338029 0.568121 0.317199
20129 1 0.366177 0.408943 0.317218
20127 1 0.338029 0.068121 0.317199
20697 1 0.422412 0.585103 0.365915
20696 1 0.436568 0.263164 0.341637
20695 1 0.408377 0.918008 0.341587
20691 1 0.422412 0.0851034 0.365915
20690 1 0.436568 0.763164 0.341637
20689 1 0.408377 0.418008 0.341587
20688 1 0.394222 0.240053 0.365874
20682 1 0.394222 0.740053 0.365874
20145 1 0.422515 0.594451 0.317295
20139 1 0.422515 0.0944507 0.317295
20136 1 0.39434 0.25103 0.317251
20130 1 0.39434 0.75103 0.317251
20700 1 0.478861 0.282481 0.366009
20699 1 0.450628 0.932731 0.36597
20698 1 0.464772 0.60993 0.341681
20694 1 0.478861 0.782481 0.366009
20693 1 0.450628 0.43273 0.36597
20692 1 0.464772 0.10993 0.341681
20148 1 0.478885 0.284625 0.317365
20147 1 0.450698 0.939095 0.317339
20142 1 0.478885 0.784625 0.317365
20141 1 0.450698 0.439095 0.317339
20707 1 0.49298 0.957661 0.341696
20701 1 0.49298 0.457661 0.341696
21742 3 0.0426091 0.510977 0.439072
21740 3 0.014462 0.17702 0.439072
21736 3 0.0426091 0.010978 0.439072
21734 3 0.014462 0.67702 0.439072
21192 1 0.0569787 0.181232 0.414766
21191 3 0.0285356 0.847971 0.414701
21190 3 0.0426091 0.51909 0.390329
21188 3 0.014462 0.184697 0.390329
21186 1 0.0569787 0.681232 0.414766
21185 3 0.0285356 0.34797 0.414701
21184 3 0.0426091 0.0190906 0.390329
21182 3 0.014462 0.684696 0.390329
21754 1 0.12717 0.513299 0.439067
21752 1 0.0990773 0.178847 0.439077
21751 1 0.0709758 0.844606 0.439087
21748 1 0.12717 0.0132989 0.439067
21746 1 0.0990773 0.678847 0.439077
21745 1 0.0709758 0.344606 0.439087
21203 1 0.113125 0.85076 0.414699
21202 1 0.127154 0.523073 0.390335
21201 1 0.0850557 0.516044 0.41472
21200 1 0.0990645 0.187908 0.390312
21199 1 0.071081 0.853244 0.390368
21197 1 0.113125 0.35076 0.414699
21196 1 0.127154 0.0230726 0.390335
21195 1 0.0850557 0.0160444 0.41472
21194 1 0.0990645 0.687908 0.390312
21193 1 0.071081 0.353244 0.390368
21764 1 0.18336 0.182937 0.439055
21763 1 0.155266 0.848019 0.439064
21758 1 0.18336 0.682937 0.439055
21757 1 0.155266 0.348019 0.439064
21213 1 0.169302 0.520988 0.414697
21212 1 0.183351 0.194186 0.390333
21211 1 0.155251 0.858524 0.390342
21207 1 0.169302 0.0209881 0.414697
21206 1 0.183351 0.694186 0.390333
21205 1 0.155251 0.358524 0.390342
21204 1 0.141207 0.185756 0.4147
21198 1 0.141207 0.685756 0.4147
21775 1 0.239542 0.853513 0.439016
21769 1 0.239542 0.353513 0.439016
21766 1 0.211453 0.518079 0.439038
21760 1 0.211453 0.0180786 0.439038
21225 1 0.253576 0.528371 0.414635
21223 1 0.239537 0.866505 0.390287
21219 1 0.253576 0.0283707 0.414635
21217 1 0.239537 0.366505 0.390287
21216 1 0.225488 0.192199 0.414662
21215 1 0.197397 0.856441 0.414683
21214 1 0.211446 0.530142 0.390313
21210 1 0.225488 0.692199 0.414662
21209 1 0.197397 0.356441 0.414683
21208 1 0.211446 0.030142 0.390313
21778 1 0.295707 0.525727 0.438958
21776 1 0.267627 0.189344 0.438989
21772 1 0.295707 0.0257268 0.438958
21770 1 0.267627 0.689343 0.438989
21228 1 0.309747 0.202588 0.414573
21227 1 0.281662 0.865099 0.414605
21226 1 0.295722 0.541008 0.39023
21224 1 0.267628 0.203402 0.390258
21222 1 0.309747 0.702588 0.414573
21221 1 0.281662 0.365099 0.414605
21220 1 0.295722 0.0410078 0.39023
21218 1 0.267628 0.703402 0.390258
21790 1 0.379941 0.541264 0.438843
21788 1 0.35186 0.201221 0.438885
21787 1 0.323784 0.8629 0.438924
21784 1 0.379941 0.041264 0.438843
21782 1 0.35186 0.701221 0.438885
21781 1 0.323784 0.3629 0.438924
21239 1 0.365937 0.881174 0.41451
21238 1 0.380066 0.560936 0.390175
21237 1 0.337837 0.54113 0.41454
21236 1 0.351933 0.219364 0.390183
21235 1 0.323821 0.879549 0.390203
21233 1 0.365937 0.381173 0.41451
21232 1 0.380066 0.0609366 0.390175
21231 1 0.337837 0.0411304 0.41454
21230 1 0.351933 0.719364 0.390183
21229 1 0.323821 0.379549 0.390203
21800 1 0.436191 0.231844 0.438752
21799 1 0.408041 0.884021 0.4388
21794 1 0.436191 0.731844 0.438752
21793 1 0.408041 0.384022 0.4388
21249 1 0.422227 0.569097 0.414485
21248 1 0.436444 0.252435 0.39023
21247 1 0.408232 0.904974 0.390188
21243 1 0.422227 0.0690961 0.414485
21242 1 0.436444 0.752436 0.39023
21241 1 0.408232 0.404974 0.390188
21240 1 0.39406 0.223412 0.414489
21234 1 0.39406 0.723412 0.414489
21802 1 0.464505 0.589541 0.438789
21796 1 0.464505 0.0895413 0.438789
21252 1 0.478804 0.277829 0.414591
21251 1 0.450473 0.920295 0.414525
21250 1 0.464701 0.603819 0.390291
21246 1 0.478804 0.777829 0.414591
21245 1 0.450473 0.420295 0.414525
21244 1 0.464701 0.103819 0.390291
21811 1 0.492978 0.958078 0.438873
21805 1 0.492978 0.458078 0.438873
21259 1 0.49298 0.957873 0.390316
21253 1 0.49298 0.457873 0.390316
21744 1 0.056991 0.17322 0.463449
21743 3 0.0285356 0.839955 0.463443
21741 3 0.00038843 0.506252 0.463443
21738 1 0.0569909 0.67322 0.463449
21737 3 0.0285356 0.339954 0.463443
21735 3 0.00038843 0.00625274 0.463443
22286 3 0.014462 0.669145 0.487814
22288 1 0.0428997 0.00197783 0.487872
22292 3 0.014462 0.169146 0.487814
22294 1 0.0428997 0.501978 0.487872
21755 1 0.113139 0.841113 0.463436
21753 1 0.0850371 0.507051 0.463433
21749 1 0.113139 0.341113 0.463436
21747 1 0.0850371 0.00705113 0.463433
22297 1 0.071022 0.335583 0.487804
22298 1 0.099118 0.669196 0.487803
22300 1 0.127208 0.00297739 0.487803
22303 1 0.071022 0.835583 0.487804
22304 1 0.099118 0.169196 0.487803
22306 1 0.127208 0.502977 0.487803
21765 1 0.169332 0.509722 0.463427
21759 1 0.169332 0.0097221 0.463427
21756 1 0.141235 0.175345 0.463433
21750 1 0.141235 0.675345 0.463433
22309 1 0.155308 0.336871 0.487799
22310 1 0.183408 0.670831 0.48779
22315 1 0.155308 0.836871 0.487799
22316 1 0.183408 0.170831 0.48779
21777 1 0.253611 0.51391 0.463375
21771 1 0.253611 0.01391 0.463375
21768 1 0.225522 0.178966 0.463397
21767 1 0.197428 0.844257 0.463414
21762 1 0.225522 0.678966 0.463397
21761 1 0.197428 0.344257 0.463414
22312 1 0.211508 0.00486607 0.487776
22318 1 0.211508 0.504866 0.487776
22321 1 0.239605 0.338981 0.487759
22327 1 0.239605 0.838981 0.487759
21780 1 0.309773 0.184957 0.46332
21779 1 0.281695 0.849188 0.463349
21774 1 0.309773 0.684957 0.46332
21773 1 0.281695 0.349188 0.463349
22322 1 0.267699 0.673218 0.487739
22324 1 0.295787 0.00763944 0.487717
22328 1 0.267699 0.173218 0.487739
22330 1 0.295787 0.507639 0.487717
21791 1 0.365902 0.859124 0.463243
21789 1 0.337842 0.521466 0.463285
21785 1 0.365902 0.359124 0.463243
21783 1 0.337842 0.0214653 0.463285
22333 1 0.323868 0.34236 0.487692
22334 1 0.351936 0.677578 0.487664
22336 1 0.379982 0.013595 0.48763
22339 1 0.323868 0.84236 0.487692
22340 1 0.351936 0.177578 0.487664
22342 1 0.379982 0.513595 0.48763
21801 1 0.422 0.541406 0.463117
21795 1 0.422 0.041406 0.463117
21792 1 0.393953 0.198652 0.463191
21786 1 0.393953 0.698652 0.463191
22345 1 0.407988 0.350985 0.487584
22346 1 0.435954 0.691022 0.487517
22351 1 0.407988 0.850985 0.487584
22352 1 0.435954 0.191021 0.487517
21804 1 0.478604 0.262538 0.463067
21803 1 0.450116 0.89194 0.462995
21798 1 0.478604 0.762538 0.463067
21797 1 0.450116 0.391939 0.462995
22348 1 0.464007 0.0415174 0.487359
22354 1 0.464007 0.541517 0.487359
22357 1 0.492977 0.458263 0.487407
22363 1 0.492977 0.958262 0.487407
22287 3 0.00038843 0.998555 0.512186
22289 3 0.0285356 0.331802 0.512186
22290 1 0.0570709 0.664386 0.512182
22293 3 0.00038843 0.498554 0.512186
22295 3 0.0285356 0.831802 0.512186
22296 1 0.0570709 0.164386 0.512182
22838 3 0.014462 0.661222 0.536557
22839 3 0.00038843 0.990884 0.560928
22840 1 0.042905 0.993522 0.53649
22841 3 0.0285356 0.323681 0.560928
22842 1 0.0570028 0.655853 0.560915
22844 3 0.014462 0.161222 0.536557
22845 3 0.00038843 0.490883 0.560928
22846 1 0.042905 0.493522 0.53649
22847 3 0.0285356 0.823682 0.560928
22848 1 0.0570028 0.155853 0.560915
22299 1 0.0851028 0.997569 0.51218
22301 1 0.113184 0.330968 0.512177
22305 1 0.0851028 0.497569 0.51218
22307 1 0.113184 0.830968 0.512177
22849 1 0.0710358 0.326546 0.53656
22850 1 0.0991423 0.659493 0.536552
22851 1 0.0850705 0.988414 0.560924
22852 1 0.127244 0.9925 0.536544
22853 1 0.113196 0.321075 0.560912
22855 1 0.0710358 0.826546 0.53656
22856 1 0.0991423 0.159493 0.536552
22857 1 0.0850705 0.488414 0.560924
22858 1 0.127244 0.4925 0.536544
22859 1 0.113196 0.821075 0.560912
22302 1 0.141282 0.664438 0.512172
22308 1 0.141282 0.164438 0.512172
22311 1 0.169386 0.997892 0.512164
22317 1 0.169386 0.497892 0.512164
22854 1 0.141315 0.653659 0.560906
22860 1 0.141315 0.153659 0.560906
22861 1 0.155357 0.325496 0.536536
22862 1 0.18347 0.658398 0.536526
22863 1 0.169435 0.986117 0.560898
22867 1 0.155357 0.825496 0.536536
22868 1 0.18347 0.158398 0.536526
22869 1 0.169435 0.486117 0.560898
22313 1 0.197492 0.331319 0.512152
22314 1 0.225599 0.664703 0.512138
22319 1 0.197492 0.831319 0.512152
22320 1 0.225599 0.164703 0.512138
22323 1 0.253704 0.998028 0.512123
22329 1 0.253704 0.498028 0.512123
22864 1 0.211584 0.991163 0.536514
22865 1 0.197556 0.318388 0.560887
22866 1 0.225679 0.650394 0.560875
22870 1 0.211584 0.491163 0.536514
22871 1 0.197556 0.818388 0.560887
22872 1 0.225679 0.150394 0.560875
22873 1 0.239699 0.323745 0.536501
22875 1 0.253804 0.982029 0.560865
22879 1 0.239699 0.823745 0.536501
22881 1 0.253804 0.482029 0.560865
22325 1 0.281806 0.331275 0.512107
22326 1 0.309905 0.664431 0.512091
22331 1 0.281806 0.831275 0.512107
22332 1 0.309905 0.164431 0.512091
22874 1 0.267814 0.656061 0.536489
22876 1 0.295929 0.98801 0.536479
22877 1 0.281929 0.31314 0.560857
22878 1 0.310055 0.643541 0.560857
22880 1 0.267814 0.156061 0.536489
22882 1 0.295929 0.48801 0.536479
22883 1 0.281929 0.81314 0.560857
22884 1 0.310055 0.143541 0.560857
22335 1 0.337997 0.99747 0.512077
22337 1 0.366078 0.330283 0.512066
22341 1 0.337997 0.49747 0.512077
22343 1 0.366078 0.830283 0.512066
22885 1 0.324042 0.319441 0.536473
22886 1 0.352153 0.650019 0.536477
22887 1 0.33818 0.97286 0.560867
22888 1 0.380259 0.97909 0.536498
22889 1 0.366302 0.300464 0.560897
22891 1 0.324042 0.819441 0.536473
22892 1 0.352153 0.150018 0.536477
22893 1 0.33818 0.47286 0.560867
22894 1 0.380259 0.47909 0.536498
22895 1 0.366302 0.800464 0.560897
22338 1 0.39414 0.662573 0.512062
22344 1 0.39414 0.162573 0.512062
22347 1 0.422178 0.993472 0.512076
22353 1 0.422178 0.493472 0.512076
22890 1 0.39442 0.625237 0.560964
22896 1 0.39442 0.125237 0.560964
22897 1 0.408364 0.305242 0.536554
22898 1 0.436489 0.625166 0.536681
22899 1 0.422536 0.945158 0.561096
22903 1 0.408364 0.805241 0.536554
22904 1 0.436489 0.125166 0.536681
22905 1 0.422536 0.445158 0.561096
22349 1 0.450262 0.320616 0.512141
22350 1 0.478537 0.625108 0.51241
22355 1 0.450262 0.820616 0.512141
22356 1 0.478537 0.125108 0.51241
22900 1 0.464632 0.929661 0.537026
22901 1 0.450647 0.256857 0.561374
22902 1 0.478809 0.559242 0.561727
22906 1 0.464632 0.429661 0.537026
22907 1 0.450647 0.756857 0.561374
22908 1 0.478809 0.0592424 0.561727
22909 1 0.492971 0.208697 0.537515
22915 1 0.492971 0.708697 0.537515
23390 3 0.014462 0.653404 0.585299
23392 3 0.0426091 0.985944 0.585299
23393 3 0.0285356 0.315758 0.609671
23394 1 0.0570008 0.646873 0.609594
23396 3 0.014462 0.153405 0.585299
23398 3 0.0426091 0.485944 0.585299
23399 3 0.0285356 0.815758 0.609671
23400 1 0.0570008 0.146873 0.609594
23401 1 0.0710055 0.317828 0.585269
23402 1 0.0991414 0.650116 0.585269
23403 1 0.0851119 0.979372 0.609622
23404 1 0.127265 0.982332 0.585271
23405 1 0.11322 0.311472 0.609634
23407 1 0.0710055 0.817828 0.585269
23408 1 0.0991414 0.150116 0.585269
23409 1 0.0851119 0.479372 0.609622
23410 1 0.127265 0.482332 0.585271
23411 1 0.11322 0.811472 0.609634
23406 1 0.141332 0.643331 0.609635
23412 1 0.141332 0.143331 0.609635
23413 1 0.15539 0.314444 0.585267
23414 1 0.183515 0.646335 0.585258
23415 1 0.169459 0.974957 0.609627
23419 1 0.15539 0.814444 0.585267
23420 1 0.183515 0.146335 0.585258
23421 1 0.169459 0.474957 0.609627
23416 1 0.211643 0.977921 0.585246
23417 1 0.19759 0.306248 0.609616
23418 1 0.225725 0.637113 0.609605
23422 1 0.211643 0.477921 0.585246
23423 1 0.19759 0.806248 0.609616
23424 1 0.225725 0.137113 0.609605
23425 1 0.239773 0.309092 0.585236
23427 1 0.253862 0.967402 0.609599
23431 1 0.239773 0.809092 0.585236
23433 1 0.253862 0.467402 0.609599
23426 1 0.267906 0.639681 0.58523
23428 1 0.296039 0.969487 0.585231
23429 1 0.281999 0.29692 0.6096
23430 1 0.310132 0.625423 0.609614
23432 1 0.267906 0.139681 0.58523
23434 1 0.296039 0.469487 0.585231
23435 1 0.281999 0.79692 0.6096
23436 1 0.310132 0.125423 0.609614
23437 1 0.32417 0.298204 0.585244
23438 1 0.352297 0.625328 0.585277
23439 1 0.338261 0.95255 0.609646
23440 1 0.380419 0.950095 0.585342
23441 1 0.366384 0.277801 0.609705
23443 1 0.32417 0.798204 0.585244
23444 1 0.352297 0.125329 0.585277
23445 1 0.338261 0.45255 0.609646
23446 1 0.380419 0.450095 0.585342
23447 1 0.366384 0.777802 0.609705
23442 1 0.394498 0.600543 0.609804
23448 1 0.394498 0.100543 0.609804
23449 1 0.408533 0.271384 0.585458
23450 1 0.43664 0.587822 0.585658
23451 1 0.422606 0.920188 0.609952
23455 1 0.408533 0.771384 0.585458
23456 1 0.43664 0.0878213 0.585658
23457 1 0.422606 0.420188 0.609952
23452 1 0.464769 0.89933 0.585907
23453 1 0.450726 0.236792 0.610132
23454 1 0.478882 0.551651 0.610255
23458 1 0.464769 0.399331 0.585907
23459 1 0.450726 0.736792 0.610132
23460 1 0.478882 0.0516507 0.610255
23461 1 0.492969 0.208834 0.586008
23467 1 0.492969 0.708834 0.586008
23942 3 0.014462 0.645837 0.634042
23944 3 0.0426091 0.977961 0.634042
23945 3 0.0285356 0.308172 0.658413
23946 3 0.0566827 0.640033 0.658413
23948 3 0.014462 0.145837 0.634042
23950 3 0.0426091 0.47796 0.634042
23951 3 0.0285356 0.808172 0.658413
23952 3 0.0566827 0.140034 0.658413
24496 3 0.0426091 0.970406 0.682784
24502 3 0.0426091 0.470406 0.682784
23953 1 0.071107 0.309389 0.633969
23954 1 0.0991412 0.641136 0.634006
23955 1 0.0850349 0.971591 0.658348
23956 1 0.12726 0.972804 0.634005
23957 1 0.11315 0.302905 0.658373
23959 1 0.071107 0.809389 0.633969
23960 1 0.0991412 0.141136 0.634006
23961 1 0.0850349 0.471591 0.658348
23962 1 0.12726 0.472804 0.634005
23963 1 0.11315 0.802905 0.658373
24505 3 0.0707563 0.302002 0.682784
24506 1 0.0990809 0.633319 0.682707
24508 1 0.127196 0.964358 0.682729
24511 3 0.0707563 0.802002 0.682784
24512 1 0.0990809 0.133319 0.682707
24514 1 0.127196 0.464358 0.682729
23958 1 0.141297 0.634067 0.658364
23964 1 0.141297 0.134067 0.658364
23965 1 0.155386 0.304217 0.633998
23966 1 0.183523 0.635294 0.633985
23967 1 0.169439 0.96497 0.658353
23971 1 0.155386 0.804217 0.633998
23972 1 0.183523 0.135294 0.633985
23973 1 0.169439 0.46497 0.658353
24517 1 0.15535 0.295149 0.682717
24518 1 0.183497 0.625623 0.682703
24523 1 0.15535 0.795149 0.682717
24524 1 0.183497 0.125623 0.682703
23968 1 0.211662 0.965959 0.633973
23969 1 0.197585 0.295505 0.658338
23970 1 0.225729 0.625559 0.658329
23974 1 0.211662 0.465959 0.633973
23975 1 0.197585 0.795505 0.658338
23976 1 0.225729 0.125559 0.658329
23977 1 0.239801 0.296087 0.633965
23979 1 0.25387 0.95498 0.658327
23983 1 0.239801 0.796087 0.633965
23985 1 0.25387 0.45498 0.658327
24520 1 0.211647 0.955668 0.68269
24526 1 0.211647 0.455668 0.68269
24529 1 0.239793 0.285155 0.682686
24535 1 0.239793 0.785155 0.682686
23978 1 0.26794 0.625504 0.633965
23980 1 0.296076 0.954015 0.633978
23981 1 0.282008 0.283607 0.658338
23982 1 0.31014 0.611257 0.658364
23984 1 0.26794 0.125504 0.633965
23986 1 0.296076 0.454015 0.633978
23987 1 0.282008 0.783607 0.658338
23988 1 0.31014 0.111257 0.658364
24530 1 0.267934 0.613949 0.682694
24532 1 0.296068 0.941917 0.682717
24536 1 0.267934 0.113948 0.682694
24538 1 0.296068 0.441917 0.682717
23989 1 0.324207 0.28136 0.634008
23990 1 0.35233 0.60722 0.634061
23991 1 0.338266 0.937715 0.65841
23992 1 0.380446 0.931227 0.634143
23993 1 0.366384 0.262761 0.658481
23995 1 0.324207 0.78136 0.634008
23996 1 0.35233 0.10722 0.634061
23997 1 0.338266 0.437715 0.65841
23998 1 0.380446 0.431228 0.634143
23999 1 0.366384 0.762761 0.658481
24541 1 0.324196 0.268917 0.682757
24542 1 0.352317 0.594808 0.682816
24544 1 0.380434 0.919509 0.682894
24547 1 0.324196 0.768917 0.682757
24548 1 0.352317 0.0948077 0.682816
24550 1 0.380434 0.419509 0.682894
23994 1 0.394498 0.586247 0.658575
24000 1 0.394498 0.0862474 0.658575
24001 1 0.408557 0.253099 0.63426
24002 1 0.436674 0.572897 0.634399
24003 1 0.422615 0.908219 0.658687
24007 1 0.408557 0.753098 0.63426
24008 1 0.436674 0.0728975 0.634399
24009 1 0.422615 0.408219 0.658687
24553 1 0.408553 0.243051 0.682986
24554 1 0.436679 0.565634 0.683077
24559 1 0.408553 0.743051 0.682986
24560 1 0.436679 0.0656336 0.683077