ITEM: TIMESTEP
42
ITEM: NUMBER OF ATOMS
2342
ITEM: BOX BOUNDS ss pp ss
-4.1700547267000005e+01 4.1117760752000002e+01
-4.1208122699999999e-01 4.5329187729999996e+00
-4.0239876534000004e+01 4.0576319157000000e+01
ITEM: ATOMS id type xs ys zs
17355 3 0.253713 0.0836552 0.0503597
17361 3 0.253713 0.583655 0.0503597
17356 3 0.295933 0.091339 0.0253797
17357 3 0.28186 0.420959 0.0503597
17358 3 0.310007 0.758476 0.0503597
17362 3 0.295933 0.591338 0.0253797
17363 3 0.28186 0.92096 0.0503597
17364 3 0.310007 0.258477 0.0503597
16817 3 0.366301 0.436414 0.00039968
16823 3 0.366301 0.936414 0.00039968
17365 3 0.32408 0.428801 0.0253797
17366 3 0.352228 0.766438 0.0253797
17367 3 0.338154 0.0961973 0.0503597
17368 3 0.380375 0.104234 0.0253797
17369 1 0.366394 0.435338 0.0506826
17371 3 0.32408 0.928802 0.0253797
17372 3 0.352228 0.266439 0.0253797
17373 3 0.338154 0.596197 0.0503597
17374 3 0.380375 0.604233 0.0253797
17375 1 0.366394 0.935338 0.0506826
16818 3 0.394448 0.774081 0.00039968
16824 3 0.394448 0.274082 0.00039968
16827 3 0.422595 0.111857 0.00039968
16833 3 0.422595 0.611857 0.00039968
17370 1 0.394561 0.772858 0.05071
17376 1 0.394561 0.272858 0.05071
17377 3 0.408522 0.442165 0.0253797
17378 3 0.436669 0.78021 0.0253797
17379 1 0.42264 0.110691 0.0505797
17383 3 0.408522 0.942166 0.0253797
17384 3 0.436669 0.280211 0.0253797
17385 1 0.42264 0.610691 0.0505797
16829 3 0.450743 0.449717 0.00039968
16830 3 0.47889 0.787633 0.00039968
16835 3 0.450743 0.949717 0.00039968
16836 3 0.47889 0.287634 0.00039968
17380 1 0.46482 0.118438 0.0254225
17381 1 0.45076 0.449002 0.0505755
17382 1 0.478898 0.787477 0.0505879
17386 1 0.46482 0.618438 0.0254225
17387 1 0.45076 0.949002 0.0505755
17388 1 0.478898 0.287477 0.0505879
17389 1 0.492965 0.456649 0.0254272
17395 1 0.492965 0.956649 0.0254272
18445 3 0.155198 0.397542 0.1253
18446 3 0.183345 0.734215 0.1253
18451 3 0.155198 0.897543 0.1253
18452 3 0.183345 0.234216 0.1253
17896 3 0.211492 0.0759654 0.0753397
17897 3 0.197418 0.405178 0.10032
17898 3 0.225565 0.742198 0.10032
17902 3 0.211492 0.575965 0.0753397
17903 3 0.197418 0.905179 0.10032
17904 3 0.225565 0.242198 0.10032
17905 3 0.239639 0.413033 0.0753397
17907 1 0.253909 0.0802111 0.100548
17911 3 0.239639 0.913034 0.0753397
17913 1 0.253909 0.580211 0.100548
18448 3 0.211492 0.0711548 0.1253
18454 3 0.211492 0.571154 0.1253
18457 1 0.239802 0.408971 0.125567
18463 1 0.239802 0.908971 0.125567
17906 3 0.267786 0.750341 0.0753397
17908 1 0.296025 0.0886721 0.075637
17909 1 0.282052 0.417835 0.100666
17910 1 0.31015 0.755706 0.100568
17912 3 0.267786 0.250341 0.0753397
17914 1 0.296025 0.588672 0.075637
17915 1 0.282052 0.917835 0.100666
17916 1 0.31015 0.255706 0.100568
18458 1 0.267914 0.746647 0.12554
18460 1 0.296068 0.0846964 0.125546
18464 1 0.267914 0.246647 0.12554
18466 1 0.296068 0.584696 0.125546
17917 1 0.32423 0.426355 0.0756316
17918 1 0.352326 0.764407 0.0755783
17919 1 0.338271 0.0938574 0.100539
17920 1 0.380473 0.102905 0.0756187
17921 1 0.366393 0.432187 0.100551
17923 1 0.32423 0.926355 0.0756316
17924 1 0.352326 0.264407 0.0755783
17925 1 0.338271 0.593857 0.100539
17926 1 0.380473 0.602905 0.0756187
17927 1 0.366393 0.932187 0.100551
18469 1 0.324198 0.4228 0.125518
18470 1 0.352323 0.76124 0.125508
18472 1 0.380456 0.100009 0.125512
18475 1 0.324198 0.9228 0.125518
18476 1 0.352323 0.26124 0.125508
18478 1 0.380456 0.600009 0.125512
17922 1 0.394537 0.770863 0.100561
17928 1 0.394537 0.270863 0.100561
17929 1 0.408608 0.441177 0.0755753
17930 1 0.436717 0.779436 0.0755272
17931 1 0.422666 0.109563 0.100535
17935 1 0.408608 0.941177 0.0755753
17936 1 0.436717 0.279436 0.0755272
17937 1 0.422666 0.609563 0.100535
18481 1 0.408593 0.439048 0.125511
18482 1 0.436723 0.77821 0.125502
18487 1 0.408593 0.939048 0.125511
18488 1 0.436723 0.27821 0.125502
17932 1 0.464839 0.11804 0.0755209
17933 1 0.450785 0.448348 0.100514
17934 1 0.47891 0.787346 0.10051
17938 1 0.464839 0.61804 0.0755209
17939 1 0.450785 0.948348 0.100514
17940 1 0.47891 0.287346 0.10051
18484 1 0.464849 0.117527 0.125495
18490 1 0.464849 0.617527 0.125495
17941 1 0.492971 0.456792 0.0755236
17947 1 0.492971 0.956792 0.0755236
18493 1 0.492974 0.456977 0.125492
18499 1 0.492974 0.956977 0.125492
18988 3 0.127051 0.0554275 0.17526
18994 3 0.127051 0.555427 0.17526
18438 3 0.141124 0.726541 0.15028
18444 3 0.141124 0.226542 0.15028
18447 3 0.169271 0.0630899 0.15028
18453 3 0.169271 0.563089 0.15028
18997 3 0.155198 0.391821 0.17526
18998 1 0.183566 0.728906 0.175511
19003 3 0.155198 0.891822 0.17526
19004 1 0.183566 0.228906 0.175511
18449 1 0.19763 0.40094 0.150502
18450 1 0.225698 0.737577 0.150461
18455 1 0.19763 0.90094 0.150502
18456 1 0.225698 0.237577 0.150461
18459 1 0.253815 0.0751608 0.150467
18465 1 0.253815 0.575161 0.150467
19000 1 0.211642 0.0661059 0.175442
19006 1 0.211642 0.566106 0.175442
19009 1 0.239742 0.403327 0.17541
19015 1 0.239742 0.903327 0.17541
18461 1 0.281962 0.413051 0.150477
18462 1 0.310105 0.751318 0.150473
18467 1 0.281962 0.913051 0.150477
18468 1 0.310105 0.251318 0.150473
19010 1 0.267867 0.741101 0.17541
19012 1 0.296004 0.0792845 0.175412
19016 1 0.267867 0.241101 0.17541
19018 1 0.296004 0.579285 0.175412
18471 1 0.33824 0.089813 0.150465
18473 1 0.366375 0.428684 0.150469
18477 1 0.33824 0.589813 0.150465
18479 1 0.366375 0.928684 0.150469
19021 1 0.324145 0.417868 0.175416
19022 1 0.352286 0.756855 0.175421
19024 1 0.380426 0.0962885 0.175432
19027 1 0.324145 0.917868 0.175416
19028 1 0.352286 0.256855 0.175421
19030 1 0.380426 0.596288 0.175432
18474 1 0.394513 0.767942 0.150477
18480 1 0.394513 0.267942 0.150477
18483 1 0.422649 0.107482 0.15048
18489 1 0.422649 0.607482 0.15048
19033 1 0.408566 0.436128 0.175444
19034 1 0.436704 0.776279 0.175453
19039 1 0.408566 0.936128 0.175444
19040 1 0.436704 0.276279 0.175453
18485 1 0.450781 0.447212 0.15048
18486 1 0.478909 0.78709 0.150479
18491 1 0.450781 0.947212 0.15048
18492 1 0.478909 0.28709 0.150479
19036 1 0.464838 0.116648 0.175459
19042 1 0.464838 0.616648 0.175459
19045 1 0.492971 0.457136 0.17546
19051 1 0.492971 0.957136 0.17546
18989 3 0.112977 0.384224 0.20024
18995 3 0.112977 0.884225 0.20024
19538 3 0.0989034 0.712961 0.22522
19540 1 0.127077 0.0489427 0.225237
19544 3 0.0989034 0.212962 0.22522
19546 1 0.127077 0.548943 0.225237
18990 3 0.141124 0.720437 0.20024
18996 3 0.141124 0.220437 0.20024
18999 1 0.169413 0.0569966 0.200365
19005 1 0.169413 0.556997 0.200365
19549 1 0.15534 0.385214 0.225316
19550 1 0.183414 0.721906 0.225301
19555 1 0.15534 0.885214 0.225316
19556 1 0.183414 0.221906 0.225301
19001 1 0.197524 0.394152 0.200383
19002 1 0.225655 0.731361 0.200372
19007 1 0.197524 0.894152 0.200383
19008 1 0.225655 0.231361 0.200372
19011 1 0.253773 0.0688993 0.200353
19017 1 0.253773 0.568899 0.200353
19552 1 0.211547 0.0590649 0.225312
19558 1 0.211547 0.559065 0.225312
19561 1 0.239672 0.396463 0.225301
19567 1 0.239672 0.896463 0.225301
19013 1 0.281904 0.406912 0.200351
19014 1 0.310043 0.745442 0.200356
19019 1 0.281904 0.906912 0.200351
19020 1 0.310043 0.245442 0.200356
19562 1 0.267802 0.734268 0.225295
19564 1 0.295937 0.0726176 0.225294
19568 1 0.267802 0.234268 0.225295
19570 1 0.295937 0.572618 0.225294
19023 1 0.338185 0.0844762 0.200364
19025 1 0.366329 0.424034 0.200378
19029 1 0.338185 0.584476 0.200364
19031 1 0.366329 0.924034 0.200378
19573 1 0.324078 0.411568 0.225301
19574 1 0.352223 0.751146 0.225315
19576 1 0.380372 0.0913662 0.225336
19579 1 0.324078 0.911568 0.225301
19580 1 0.352223 0.251146 0.225315
19582 1 0.380372 0.591366 0.225336
19026 1 0.394474 0.764108 0.200396
19032 1 0.394474 0.264108 0.200396
19035 1 0.422618 0.104636 0.200414
19041 1 0.422618 0.604636 0.200414
19585 1 0.408522 0.432199 0.225361
19586 1 0.436672 0.773565 0.225385
19591 1 0.408522 0.932199 0.225361
19592 1 0.436672 0.273565 0.225385
19037 1 0.45076 0.445515 0.200428
19038 1 0.478899 0.786619 0.200436
19043 1 0.45076 0.945515 0.200428
19044 1 0.478899 0.286619 0.200436
19588 1 0.464821 0.115325 0.225402
19594 1 0.464821 0.615325 0.225402
19597 1 0.492968 0.457291 0.225408
19603 1 0.492968 0.957291 0.225408
20082 3 0.0566827 0.699109 0.30016
20088 3 0.0566827 0.19911 0.30016
19539 3 0.0848298 0.0416672 0.2502
19541 1 0.113005 0.377432 0.250217
19545 3 0.0848298 0.541667 0.2502
19547 1 0.113005 0.877432 0.250217
20089 3 0.0707563 0.370372 0.27518
20090 1 0.0989321 0.705902 0.275197
20091 1 0.0848572 0.0343912 0.300175
20092 1 0.127201 0.041667 0.275269
20093 1 0.113129 0.369875 0.300246
20095 3 0.0707563 0.870373 0.27518
20096 1 0.0989321 0.205902 0.275197
20097 1 0.0848572 0.534391 0.300175
20098 1 0.127201 0.541667 0.275269
20099 1 0.113129 0.869875 0.300246
19542 1 0.141273 0.713459 0.250292
19548 1 0.141273 0.213459 0.250292
19551 1 0.169334 0.0497951 0.250252
19557 1 0.169334 0.549795 0.250252
20094 1 0.141191 0.70562 0.300195
20100 1 0.141191 0.20562 0.300195
20101 1 0.155261 0.377714 0.275222
20102 1 0.183367 0.714116 0.275206
20103 1 0.169294 0.041667 0.300173
20107 1 0.155261 0.877714 0.275222
20108 1 0.183367 0.214116 0.275206
20109 1 0.169294 0.541667 0.300173
19553 1 0.197448 0.386575 0.25025
19554 1 0.22557 0.72376 0.250246
19559 1 0.197448 0.886575 0.25025
19560 1 0.22557 0.22376 0.250246
19563 1 0.253698 0.0613527 0.250239
19569 1 0.253698 0.561353 0.250239
20104 1 0.211477 0.0509393 0.275195
20105 1 0.197398 0.378093 0.300155
20106 1 0.22551 0.714963 0.300141
20110 1 0.211477 0.550939 0.275195
20111 1 0.197398 0.878093 0.300155
20112 1 0.22551 0.214963 0.300141
20113 1 0.239599 0.388217 0.275186
20115 1 0.253626 0.0523475 0.300128
20119 1 0.239599 0.888217 0.275186
20121 1 0.253626 0.552348 0.300128
19565 1 0.281829 0.399456 0.250234
19566 1 0.309966 0.738191 0.250236
19571 1 0.281829 0.899456 0.250234
19572 1 0.309966 0.238191 0.250236
20114 1 0.267724 0.726008 0.275177
20116 1 0.295855 0.0644221 0.275173
20117 1 0.281748 0.390342 0.300116
20118 1 0.309877 0.729078 0.300111
20120 1 0.267724 0.226008 0.275177
20122 1 0.295855 0.564422 0.275173
20123 1 0.281748 0.890342 0.300116
20124 1 0.309877 0.229078 0.300111
19575 1 0.33811 0.0776435 0.250246
19577 1 0.36626 0.417864 0.250266
19581 1 0.33811 0.577644 0.250246
19583 1 0.36626 0.917864 0.250266
20125 1 0.323993 0.403587 0.275176
20126 1 0.35214 0.743622 0.27519
20127 1 0.338016 0.0687246 0.300115
20128 1 0.380297 0.0846278 0.275217
20129 1 0.366168 0.409466 0.300132
20131 1 0.323993 0.903587 0.275176
20132 1 0.35214 0.243622 0.27519
20133 1 0.338016 0.568725 0.300115
20134 1 0.380297 0.584628 0.275217
20135 1 0.366168 0.909465 0.300132
19578 1 0.394415 0.75888 0.250294
20145 1 0.422507 0.594794 0.300208
20144 1 0.436628 0.269635 0.275291
20143 1 0.40846 0.926653 0.275252
19584 1 0.394415 0.25888 0.250294
19587 1 0.422573 0.100657 0.250327
20139 1 0.422507 0.0947945 0.300208
20138 1 0.436628 0.769635 0.275291
19593 1 0.422573 0.600657 0.250327
20137 1 0.40846 0.426653 0.275252
20130 1 0.394332 0.751465 0.300165
20136 1 0.394332 0.251465 0.300165
20148 1 0.478874 0.284727 0.300279
20147 1 0.450689 0.939328 0.300252
20146 1 0.464797 0.613357 0.275321
20142 1 0.478874 0.784727 0.300279
20141 1 0.450689 0.439328 0.300252
20140 1 0.464797 0.113357 0.275321
19589 1 0.450732 0.443069 0.250355
19590 1 0.478889 0.7859 0.250371
19595 1 0.450732 0.943069 0.250355
19596 1 0.478889 0.2859 0.250371
20149 1 0.492967 0.457484 0.275332
20155 1 0.492967 0.957484 0.275332
21190 3 0.0426091 0.520244 0.3751
21188 3 0.014462 0.185792 0.3751
21184 3 0.0426091 0.0202446 0.3751
21182 3 0.014462 0.685791 0.3751
20640 3 0.0566827 0.191513 0.35012
20639 3 0.0285356 0.856793 0.35012
20638 3 0.0426091 0.527906 0.32514
20634 3 0.0566827 0.691512 0.35012
20633 3 0.0285356 0.356792 0.35012
20632 3 0.0426091 0.027907 0.32514
21202 1 0.127156 0.524269 0.375103
21200 1 0.0990767 0.189182 0.375122
21199 1 0.0710795 0.854428 0.375171
21196 1 0.127156 0.0242691 0.375103
21194 1 0.0990767 0.689182 0.375122
21193 1 0.0710795 0.354428 0.375171
20651 1 0.11308 0.861428 0.350141
20650 1 0.127126 0.533539 0.325169
20649 1 0.085006 0.526337 0.350183
20648 1 0.0990562 0.19812 0.325218
20647 3 0.0707563 0.862897 0.32514
20645 1 0.11308 0.361428 0.350141
20644 1 0.127126 0.0335388 0.325169
20643 1 0.085006 0.0263373 0.350183
20642 1 0.0990562 0.69812 0.325218
20641 3 0.0707563 0.362897 0.32514
21212 1 0.18333 0.195117 0.375061
21211 1 0.155239 0.859574 0.375081
21206 1 0.18333 0.695117 0.375061
21205 1 0.155239 0.359574 0.375081
20661 1 0.169277 0.532395 0.350099
20660 1 0.18333 0.205241 0.325124
20659 1 0.155231 0.869218 0.325146
20655 1 0.169277 0.0323946 0.350099
20654 1 0.18333 0.705241 0.325124
20653 1 0.155231 0.369218 0.325146
20652 1 0.141182 0.196759 0.350122
20646 1 0.141182 0.696759 0.350122
21223 1 0.239513 0.867281 0.375015
21217 1 0.239513 0.367281 0.375015
21214 1 0.211421 0.530986 0.375039
21208 1 0.211421 0.0309864 0.375039
20673 1 0.253573 0.541667 0.350037
20671 1 0.239541 0.878572 0.325088
20667 1 0.253573 0.041667 0.350037
20665 1 0.239541 0.378572 0.325088
20664 1 0.225473 0.204762 0.350059
20663 1 0.197375 0.86837 0.35008
20662 1 0.211435 0.541667 0.325106
20658 1 0.225473 0.704762 0.350059
20657 1 0.197375 0.36837 0.35008
20656 1 0.211435 0.041667 0.325106
21226 1 0.295703 0.541667 0.374964
21224 1 0.267607 0.204122 0.37499
21220 1 0.295703 0.041667 0.374964
21218 1 0.267607 0.704122 0.37499
20676 1 0.309788 0.217572 0.349997
20675 1 0.281677 0.879212 0.350016
20674 1 0.295769 0.554241 0.325056
20672 1 0.267652 0.216053 0.325071
20670 1 0.309788 0.717572 0.349997
20669 1 0.281677 0.379212 0.350016
20668 1 0.295769 0.0542411 0.325056
20666 1 0.267652 0.716053 0.325071
21238 1 0.380054 0.56138 0.374912
21236 1 0.351919 0.219886 0.374919
21235 1 0.323805 0.880144 0.374939
21232 1 0.380054 0.0613794 0.374912
21230 1 0.351919 0.719886 0.374919
21229 1 0.323805 0.380144 0.374939
20687 1 0.366048 0.897817 0.349984
20686 1 0.380192 0.57512 0.325071
20685 1 0.33791 0.556993 0.349984
20684 1 0.352035 0.233516 0.325051
20683 1 0.323895 0.893314 0.325048
20681 1 0.366048 0.397817 0.349984
20680 1 0.380192 0.0751197 0.325071
20679 1 0.33791 0.0569935 0.349984
20678 1 0.352035 0.733516 0.325051
20677 1 0.323895 0.393314 0.325048
21248 1 0.436433 0.252692 0.374972
21247 1 0.408221 0.905333 0.374927
21242 1 0.436433 0.752691 0.374972
21241 1 0.408221 0.405333 0.374927
20697 1 0.422401 0.58543 0.350046
20696 1 0.436559 0.263447 0.32516
20695 1 0.408367 0.918393 0.325109
20691 1 0.422401 0.0854299 0.350046
20690 1 0.436559 0.763447 0.32516
20689 1 0.408367 0.418393 0.325109
20688 1 0.394211 0.240475 0.350003
20682 1 0.394211 0.740476 0.350003
21250 1 0.464689 0.603959 0.375036
21244 1 0.464689 0.103959 0.375036
20700 1 0.478848 0.282568 0.350146
20699 1 0.450617 0.932944 0.350104
20698 1 0.46476 0.610089 0.325206
20694 1 0.478848 0.782568 0.350146
20693 1 0.450617 0.432944 0.350104
20692 1 0.46476 0.110089 0.325206
21259 1 0.492966 0.95789 0.375064
21253 1 0.492966 0.457889 0.375064
20707 1 0.492966 0.957687 0.325224
20701 1 0.492966 0.457687 0.325224
21742 3 0.0426091 0.512179 0.42506
21740 3 0.014462 0.178156 0.42506
21736 3 0.0426091 0.0121797 0.42506
21734 3 0.014462 0.678155 0.42506
21192 1 0.0569766 0.182394 0.400156
21191 3 0.0285356 0.849119 0.40008
21186 1 0.0569766 0.682394 0.400156
21185 3 0.0285356 0.349118 0.40008
21754 1 0.127176 0.514435 0.425057
21752 1 0.0990817 0.180007 0.425077
21751 1 0.070976 0.845757 0.425087
21748 1 0.127176 0.0144346 0.425057
21746 1 0.0990817 0.680007 0.425077
21745 1 0.070976 0.345757 0.425087
21203 1 0.113133 0.851973 0.400093
21201 1 0.0850582 0.517228 0.400122
21197 1 0.113133 0.351973 0.400093
21195 1 0.0850582 0.0172281 0.400122
21764 1 0.183358 0.183877 0.425016
21763 1 0.155269 0.849065 0.425037
21758 1 0.183358 0.683877 0.425016
21757 1 0.155269 0.349065 0.425037
21213 1 0.169297 0.521981 0.400048
21207 1 0.169297 0.0219813 0.400048
21204 1 0.141209 0.186871 0.400068
21198 1 0.141209 0.686871 0.400068
21775 1 0.239532 0.854255 0.424969
21769 1 0.239532 0.354255 0.424969
21766 1 0.211446 0.518912 0.424994
21760 1 0.211446 0.0189118 0.424994
21225 1 0.253559 0.529093 0.399976
21219 1 0.253559 0.0290928 0.399976
21216 1 0.225473 0.192992 0.400002
21215 1 0.197385 0.857326 0.400026
21210 1 0.225473 0.692992 0.400002
21209 1 0.197385 0.357326 0.400026
21778 1 0.295696 0.526341 0.424911
21776 1 0.267616 0.19002 0.424942
21772 1 0.295696 0.0263404 0.424911
21770 1 0.267616 0.69002 0.424942
21228 1 0.309733 0.20319 0.399916
21227 1 0.281646 0.865762 0.399947
21222 1 0.309733 0.70319 0.399916
21221 1 0.281646 0.365762 0.399947
21790 1 0.379931 0.541667 0.424797
21788 1 0.35185 0.2017 0.424839
21787 1 0.323773 0.863448 0.424877
21784 1 0.379931 0.0416669 0.424797
21782 1 0.35185 0.701699 0.424839
21781 1 0.323773 0.363448 0.424877
21239 1 0.365925 0.881634 0.399855
21237 1 0.337824 0.541667 0.399885
21233 1 0.365925 0.381634 0.399855
21231 1 0.337824 0.041667 0.399885
21800 1 0.436181 0.232079 0.42471
21799 1 0.408031 0.884344 0.424755
21794 1 0.436181 0.732078 0.42471
21793 1 0.408031 0.384343 0.424755
21249 1 0.422216 0.56939 0.399833
21243 1 0.422216 0.069391 0.399833
21240 1 0.394049 0.223797 0.399835
21234 1 0.394049 0.723797 0.399835
21802 1 0.464494 0.58967 0.42475
21796 1 0.464494 0.0896692 0.42475
21252 1 0.478792 0.277902 0.399947
21251 1 0.450462 0.920486 0.399876
21246 1 0.478792 0.777903 0.399947
21245 1 0.450462 0.420487 0.399876
21811 1 0.492966 0.958077 0.424841
21805 1 0.492966 0.458076 0.424841
21744 1 0.0569904 0.174363 0.450051
21743 3 0.0285356 0.841136 0.45004
21741 3 0.00038843 0.507368 0.45004
21738 1 0.0569904 0.674363 0.450051
21737 3 0.0285356 0.341136 0.45004
21735 3 0.00038843 0.00736901 0.45004
22286 3 0.014462 0.6703 0.47502
22287 3 0.00038843 0.999679 0.5
22288 1 0.0429 0.00312287 0.47508
22289 3 0.0285356 0.332993 0.5
22290 1 0.0570716 0.665498 0.499998
22292 3 0.014462 0.170301 0.47502
22293 3 0.00038843 0.499679 0.5
22294 1 0.0429 0.503123 0.47508
22295 3 0.0285356 0.832993 0.5
22296 1 0.0570716 0.165498 0.499998
21755 1 0.113144 0.842233 0.450037
21753 1 0.0850391 0.508173 0.450038
21749 1 0.113144 0.342233 0.450037
21747 1 0.0850391 0.00817309 0.450038
22297 1 0.0710232 0.336687 0.475013
22298 1 0.0991217 0.670283 0.475012
22299 1 0.0851055 0.998638 0.499996
22300 1 0.127214 0.00404942 0.475006
22301 1 0.113189 0.332016 0.49999
22303 1 0.0710232 0.836687 0.475013
22304 1 0.0991217 0.170283 0.475012
22305 1 0.0851055 0.498638 0.499996
22306 1 0.127214 0.504049 0.475006
22307 1 0.113189 0.832016 0.49999
21765 1 0.169336 0.510716 0.450006
21759 1 0.169336 0.0107163 0.450006
21756 1 0.14124 0.176422 0.450023
21750 1 0.14124 0.676422 0.450023
22302 1 0.141288 0.665466 0.49998
22308 1 0.141288 0.165466 0.49998
22309 1 0.155314 0.337892 0.474994
22310 1 0.183412 0.671766 0.474977
22311 1 0.169392 0.998858 0.499966
22315 1 0.155314 0.837892 0.474994
22316 1 0.183412 0.171766 0.474977
22317 1 0.169392 0.498858 0.499966
21777 1 0.253606 0.514609 0.44994
21771 1 0.253606 0.0146093 0.44994
21768 1 0.225518 0.179746 0.449964
21767 1 0.197428 0.845143 0.449986
21762 1 0.225518 0.679746 0.449964
21761 1 0.197428 0.345143 0.449986
22312 1 0.211509 0.0056904 0.474958
22313 1 0.197497 0.332188 0.499948
22314 1 0.225601 0.665469 0.499931
22318 1 0.211509 0.50569 0.474958
22319 1 0.197497 0.832188 0.499948
22320 1 0.225601 0.165469 0.499931
22321 1 0.239604 0.339712 0.474938
22323 1 0.253705 0.998706 0.499913
22327 1 0.239604 0.839712 0.474938
22329 1 0.253705 0.498706 0.499913
21780 1 0.309765 0.185517 0.449884
21779 1 0.281689 0.849818 0.449913
21774 1 0.309765 0.685517 0.449884
21773 1 0.281689 0.349818 0.449913
22322 1 0.267696 0.673868 0.474915
22324 1 0.295783 0.00821421 0.474892
22325 1 0.281806 0.331869 0.499895
22326 1 0.309903 0.664941 0.499878
22328 1 0.267696 0.173868 0.474915
22330 1 0.295783 0.508214 0.474892
22331 1 0.281806 0.831869 0.499895
22332 1 0.309903 0.164941 0.499878
21791 1 0.365895 0.859537 0.449808
21789 1 0.337835 0.521954 0.449849
21785 1 0.365895 0.359537 0.449808
21783 1 0.337835 0.0219545 0.449849
22333 1 0.323863 0.342858 0.474867
22334 1 0.351931 0.678001 0.47484
22335 1 0.337995 0.997904 0.499864
22336 1 0.379976 0.0139429 0.474807
22337 1 0.366075 0.330642 0.499855
22339 1 0.323863 0.842859 0.474867
22340 1 0.351931 0.178 0.47484
22341 1 0.337995 0.497904 0.499864
22342 1 0.379976 0.513944 0.474807
22343 1 0.366075 0.830642 0.499855
21801 1 0.421992 0.541667 0.449683
21795 1 0.421992 0.041667 0.449683
21792 1 0.393945 0.19899 0.449757
21786 1 0.393945 0.69899 0.449757
22338 1 0.394136 0.662847 0.499852
22344 1 0.394136 0.162848 0.499852
22345 1 0.407982 0.351256 0.474762
22346 1 0.435947 0.691216 0.474695
22347 1 0.422173 0.993665 0.499869
22351 1 0.407981 0.851255 0.474762
22352 1 0.435947 0.191217 0.474695
22353 1 0.422173 0.493664 0.499869
21804 1 0.478594 0.262605 0.449639
21803 1 0.450107 0.892117 0.449561
21798 1 0.478594 0.762606 0.449639
21797 1 0.450107 0.392118 0.449561
22348 1 0.464 0.0416669 0.474537
22349 1 0.450256 0.320728 0.499938
22363 1 0.492967 0.958226 0.474591
22354 1 0.464 0.541667 0.474537
22355 1 0.450256 0.820729 0.499939
22357 1 0.492967 0.458226 0.474591
22838 3 0.014462 0.662374 0.52498
22839 3 0.00038843 0.991995 0.54996
22840 1 0.042906 0.994662 0.524912
22841 3 0.0285356 0.324857 0.54996
22842 1 0.0570042 0.656979 0.549947
22844 3 0.014462 0.162375 0.52498
22845 3 0.00038843 0.491995 0.54996
22846 1 0.042906 0.494662 0.524912
22847 3 0.0285356 0.824858 0.54996
22848 1 0.0570042 0.156979 0.549947
22849 1 0.0710376 0.327628 0.524983
22850 1 0.0991461 0.660534 0.524975
22851 1 0.0850734 0.989477 0.549955
22852 1 0.12725 0.993521 0.524964
22853 1 0.113201 0.322094 0.549941
22855 1 0.0710376 0.827628 0.524983
22856 1 0.0991461 0.160534 0.524975
22857 1 0.0850734 0.489477 0.549955
22858 1 0.12725 0.493521 0.524964
22859 1 0.113201 0.822094 0.549941
22854 1 0.141321 0.65465 0.549931
22860 1 0.141321 0.15465 0.549931
22861 1 0.155363 0.326479 0.524951
22862 1 0.183475 0.6593 0.524936
22863 1 0.169442 0.987045 0.549919
22867 1 0.155363 0.826479 0.524951
22868 1 0.183475 0.1593 0.524936
22869 1 0.169442 0.487045 0.549919
22864 1 0.211589 0.991968 0.524919
22865 1 0.197563 0.319226 0.549905
22866 1 0.225685 0.651135 0.54989
22870 1 0.211589 0.491968 0.524919
22871 1 0.197563 0.819226 0.549905
22872 1 0.225685 0.151135 0.54989
22873 1 0.239703 0.324454 0.524904
22875 1 0.253809 0.982677 0.549877
22879 1 0.239703 0.824454 0.524904
22881 1 0.253809 0.482677 0.549877
22874 1 0.267817 0.656681 0.524889
22876 1 0.29593 0.988539 0.524878
22877 1 0.281933 0.313699 0.549868
22878 1 0.310058 0.644006 0.549867
22880 1 0.267817 0.156681 0.524889
22882 1 0.29593 0.48854 0.524878
22883 1 0.281933 0.813699 0.549868
22884 1 0.310058 0.144006 0.549867
22885 1 0.324042 0.319887 0.524872
22886 1 0.352152 0.65039 0.524876
22887 1 0.338182 0.973245 0.549878
22888 1 0.380257 0.979375 0.5249
22889 1 0.366303 0.300766 0.54991
22891 1 0.324042 0.819887 0.524872
22892 1 0.352152 0.15039 0.524876
22893 1 0.338182 0.473245 0.549878
22894 1 0.380257 0.479375 0.5249
22895 1 0.366303 0.800766 0.54991
22890 1 0.394419 0.625445 0.54998
22896 1 0.394419 0.125444 0.54998
22897 1 0.408361 0.305431 0.52496
22898 1 0.436485 0.625258 0.525092
22899 1 0.422535 0.94526 0.550118
22903 1 0.408361 0.805432 0.52496
22904 1 0.436485 0.125256 0.525092
22905 1 0.422535 0.44526 0.550118
22900 1 0.464627 0.929639 0.525448
22901 1 0.450644 0.256856 0.550406
22902 1 0.478805 0.559149 0.55077
22906 1 0.464627 0.429641 0.525448
22907 1 0.450644 0.756856 0.550406
22908 1 0.478805 0.059147 0.55077
22909 1 0.492966 0.208568 0.525953
22915 1 0.492966 0.708565 0.525953
22356 1 0.478529 0.125107 0.500217
22350 1 0.478529 0.625108 0.500217
23390 3 0.014462 0.654532 0.57494
23392 3 0.0426091 0.987137 0.57494
23393 3 0.0285356 0.316895 0.59992
23394 1 0.0570021 0.647996 0.599841
23396 3 0.014462 0.154533 0.57494
23398 3 0.0426091 0.487137 0.57494
23399 3 0.0285356 0.816896 0.59992
23400 1 0.0570021 0.147996 0.599841
23942 3 0.014462 0.64692 0.6249
23944 3 0.0426091 0.979101 0.6249
23948 3 0.014462 0.14692 0.6249
23950 3 0.0426091 0.4791 0.6249
23401 1 0.0710072 0.318927 0.574908
23402 1 0.0991449 0.651147 0.574906
23403 1 0.0851145 0.980429 0.599867
23404 1 0.127271 0.983325 0.574906
23405 1 0.113225 0.312471 0.599878
23407 1 0.0710072 0.818927 0.574908
23408 1 0.0991449 0.151147 0.574906
23409 1 0.0851145 0.480429 0.599867
23410 1 0.127271 0.483325 0.574906
23411 1 0.113225 0.812471 0.599878
23953 1 0.0711085 0.310475 0.624825
23954 1 0.0991455 0.642157 0.624859
23956 1 0.127268 0.973771 0.624855
23959 1 0.0711085 0.810475 0.624825
23960 1 0.0991455 0.142157 0.624859
23962 1 0.127268 0.473771 0.624855
23406 1 0.141339 0.644286 0.599877
23412 1 0.141339 0.144286 0.599877
23413 1 0.155397 0.315392 0.574899
23414 1 0.183523 0.647206 0.574887
23415 1 0.169468 0.975852 0.599868
23419 1 0.155397 0.815392 0.574899
23420 1 0.183523 0.147206 0.574887
23421 1 0.169468 0.475852 0.599868
23965 1 0.155396 0.305124 0.624847
23966 1 0.183533 0.636122 0.624834
23971 1 0.155396 0.805124 0.624847
23972 1 0.183533 0.136122 0.624834
23416 1 0.21165 0.978698 0.574873
23417 1 0.197599 0.307055 0.599854
23418 1 0.225733 0.637819 0.599841
23422 1 0.21165 0.478698 0.574873
23423 1 0.197599 0.807055 0.599854
23424 1 0.225733 0.137819 0.599841
23425 1 0.23978 0.309769 0.57486
23427 1 0.253869 0.968009 0.599833
23431 1 0.23978 0.809769 0.57486
23433 1 0.253869 0.468009 0.599833
23968 1 0.211671 0.966686 0.62482
23974 1 0.211671 0.466686 0.62482
23977 1 0.23981 0.296715 0.624811
23983 1 0.23981 0.796715 0.624811
23426 1 0.267912 0.640265 0.574853
23428 1 0.296043 0.969977 0.574853
23429 1 0.282004 0.297434 0.599833
23430 1 0.310138 0.62585 0.599847
23432 1 0.267912 0.140265 0.574853
23434 1 0.296043 0.469977 0.574853
23435 1 0.282004 0.797434 0.599833
23436 1 0.310138 0.125849 0.599847
23978 1 0.267948 0.626043 0.62481
23980 1 0.296083 0.954467 0.624822
23984 1 0.267948 0.126043 0.62481
23986 1 0.296083 0.454467 0.624822
23437 1 0.324173 0.298607 0.574866
23438 1 0.3523 0.625647 0.5749
23439 1 0.338266 0.952893 0.59988
23440 1 0.38042 0.950327 0.574969
23441 1 0.366387 0.27806 0.599942
23443 1 0.324173 0.798607 0.574866
23444 1 0.3523 0.125647 0.5749
23445 1 0.338266 0.452893 0.59988
23446 1 0.38042 0.450327 0.574969
23447 1 0.366387 0.77806 0.599942
23989 1 0.324213 0.281731 0.624852
23990 1 0.352336 0.607508 0.624906
23992 1 0.38045 0.931432 0.624993
23995 1 0.324213 0.781731 0.624852
23996 1 0.352336 0.107508 0.624906
23998 1 0.38045 0.431432 0.624993
23442 1 0.3945 0.600717 0.600044
23448 1 0.3945 0.100717 0.600044
23449 1 0.408533 0.271521 0.575089
23450 1 0.43664 0.587856 0.575296
23451 1 0.422608 0.920272 0.600199
23455 1 0.408533 0.77152 0.575089
23456 1 0.43664 0.0878572 0.575296
23457 1 0.422608 0.420272 0.600199
24001 1 0.40856 0.253221 0.625114
24002 1 0.436676 0.572939 0.625259
24007 1 0.40856 0.753222 0.625114
24008 1 0.436676 0.072938 0.625259
23452 1 0.464767 0.899276 0.575554
23453 1 0.450726 0.236786 0.600386
23454 1 0.47888 0.551563 0.600514
23458 1 0.464767 0.399273 0.575554
23459 1 0.450726 0.736785 0.600386
23460 1 0.47888 0.0515643 0.600514
24004 1 0.464812 0.891221 0.625382
24010 1 0.464812 0.391222 0.625382
23461 1 0.492966 0.208701 0.575661
23467 1 0.492966 0.708705 0.575661
24013 1 0.492966 0.208911 0.625431
24019 1 0.492966 0.708909 0.625431
23945 3 0.0285356 0.309252 0.64988
23946 3 0.0566827 0.641168 0.64988
23951 3 0.0285356 0.809253 0.64988
23952 3 0.0566827 0.141169 0.64988
24496 3 0.0426091 0.971477 0.67486
24502 3 0.0426091 0.471477 0.67486
23955 1 0.085038 0.972643 0.64981
23957 1 0.11316 0.303898 0.649829
23961 1 0.085038 0.472643 0.64981
23963 1 0.11316 0.803898 0.649829
24505 3 0.0707563 0.303123 0.67486
24506 1 0.0990946 0.634332 0.674768
24508 1 0.127215 0.965294 0.67479
24511 3 0.0707563 0.803124 0.67486
24512 1 0.0990946 0.134332 0.674768
24514 1 0.127215 0.465294 0.67479
23958 1 0.14131 0.634986 0.649821
23964 1 0.14131 0.134986 0.649821
23967 1 0.169453 0.965807 0.649812
23973 1 0.169453 0.465807 0.649812
24517 1 0.155368 0.295988 0.674783
24518 1 0.183513 0.626357 0.674774
24523 1 0.155368 0.795988 0.674783
24524 1 0.183513 0.126357 0.674774
23969 1 0.197597 0.296244 0.649798
23970 1 0.225739 0.626198 0.649787
23975 1 0.197597 0.796244 0.649798
23976 1 0.225739 0.126198 0.649787
23979 1 0.253879 0.955536 0.649783
23985 1 0.253879 0.455536 0.649783
24520 1 0.211659 0.956304 0.674761
24526 1 0.211659 0.456304 0.674761
24529 1 0.239802 0.285714 0.674755
24535 1 0.239802 0.785714 0.674755
23981 1 0.282016 0.284085 0.649792
23982 1 0.310148 0.611657 0.649818
23987 1 0.282016 0.784085 0.649792
23988 1 0.310148 0.111657 0.649818
24530 1 0.267941 0.614446 0.67476
24532 1 0.296076 0.94235 0.674781
24536 1 0.267941 0.114446 0.67476
24538 1 0.296076 0.44235 0.674781
23991 1 0.338273 0.938035 0.649866
23993 1 0.36639 0.262997 0.649938
23997 1 0.338273 0.438035 0.649866
23999 1 0.36639 0.762997 0.649938
24541 1 0.324204 0.269274 0.674821
24542 1 0.352325 0.595084 0.674882
24544 1 0.380443 0.919699 0.674964
24547 1 0.324204 0.769274 0.674821
24548 1 0.352325 0.0950836 0.674882
24550 1 0.380443 0.4197 0.674964
24560 1 0.436686 0.0656647 0.675157
24559 1 0.40856 0.743159 0.675061
23994 1 0.394504 0.586402 0.650037
24000 1 0.394504 0.086402 0.650037
24003 1 0.42262 0.908294 0.650154
24009 1 0.42262 0.408294 0.650154
24553 1 0.40856 0.243159 0.675061
24554 1 0.436685 0.565664 0.675157
24562 1 0.464822 0.387544 0.675229
24556 1 0.464822 0.887545 0.675229
24005 1 0.450748 0.229015 0.650264
24006 1 0.478891 0.549087 0.650332
24011 1 0.450748 0.729016 0.650264
24012 1 0.478891 0.0490862 0.650332
24565 1 0.492967 0.209133 0.675256
24571 1 0.492967 0.709134 0.675256
24498 3 0.0566827 0.633617 0.69984
24504 3 0.0566827 0.133617 0.69984
25067 1 0.113016 0.788496 0.749775
25066 1 0.127245 0.45739 0.724705
25065 3 0.0848298 0.457757 0.7498