ITEM: TIMESTEP
44
ITEM: NUMBER OF ATOMS
2344
ITEM: BOX BOUNDS ss pp ss
-4.1700547267000005e+01 4.1117760752000002e+01
-4.1208122699999999e-01 4.5329187729999996e+00
-4.1249271465000000e+01 4.1585714086999999e+01
ITEM: ATOMS id type xs ys zs
17356 3 0.295933 0.090534 0.0491324
17362 3 0.295933 0.590533 0.0491324
16815 3 0.338154 0.0982526 0.0247612
16817 3 0.366301 0.435878 0.0247612
16821 3 0.338154 0.598252 0.0247612
16823 3 0.366301 0.935879 0.0247612
17365 3 0.32408 0.428074 0.0491324
17366 3 0.352228 0.7658 0.0491324
17368 3 0.380375 0.103696 0.0491324
17371 3 0.32408 0.928074 0.0491324
17372 3 0.352228 0.265801 0.0491324
17374 3 0.380375 0.603695 0.0491324
16818 3 0.394448 0.773643 0.0247612
16824 3 0.394448 0.273644 0.0247612
16826 3 0.436669 0.781042 0.00038994
16827 3 0.422595 0.111525 0.0247612
16832 3 0.436669 0.281042 0.00038994
16833 3 0.422595 0.611525 0.0247612
17377 1 0.408646 0.441896 0.0491996
17378 1 0.436807 0.781208 0.049467
17383 1 0.408646 0.941896 0.0491996
17384 1 0.436807 0.281208 0.049467
16828 3 0.464816 0.118825 0.00038994
16829 3 0.450743 0.449496 0.0247612
16830 3 0.47889 0.78753 0.0247612
16834 3 0.464816 0.618824 0.00038994
16835 3 0.450743 0.949497 0.0247612
16836 3 0.47889 0.28753 0.0247612
17380 1 0.464937 0.118843 0.0494871
17386 1 0.464937 0.618843 0.0494871
16837 3 0.492963 0.456646 0.00038994
16843 3 0.492963 0.956646 0.00038994
17389 1 0.492991 0.456705 0.0493595
17395 1 0.492991 0.956705 0.0493595
17895 3 0.169271 0.0671521 0.122246
17901 3 0.169271 0.567152 0.122246
17355 3 0.253713 0.0826776 0.0735036
17361 3 0.253713 0.582677 0.0735036
17896 3 0.211492 0.0748339 0.0978748
17897 3 0.197418 0.403939 0.122246
17898 3 0.225565 0.740989 0.122246
17902 3 0.211492 0.574833 0.0978748
17903 3 0.197418 0.903939 0.122246
17904 3 0.225565 0.24099 0.122246
17905 3 0.239639 0.411943 0.0978748
17907 1 0.253851 0.0793295 0.122478
17911 3 0.239639 0.911943 0.0978748
17913 1 0.253851 0.579329 0.122478
17357 3 0.28186 0.420043 0.0735036
17358 3 0.310007 0.757634 0.0735036
17363 3 0.28186 0.920043 0.0735036
17364 3 0.310007 0.257635 0.0735036
17906 3 0.267786 0.749304 0.0978748
17908 1 0.296063 0.0880133 0.0981213
17909 1 0.282043 0.417123 0.122569
17910 1 0.310141 0.755051 0.122514
17912 3 0.267786 0.249305 0.0978748
17914 1 0.296063 0.588013 0.0981213
17915 1 0.282043 0.917123 0.122569
17916 1 0.310141 0.255051 0.122514
17367 1 0.338235 0.0963291 0.0738109
17369 1 0.366434 0.434159 0.0738399
17373 1 0.338235 0.596329 0.0738109
17375 1 0.366434 0.934158 0.0738399
17917 1 0.324244 0.425923 0.098235
17918 1 0.352356 0.763994 0.09815
17919 1 0.338288 0.0934061 0.122519
17920 1 0.380501 0.102425 0.0980828
17921 1 0.366423 0.431856 0.122481
17923 1 0.324244 0.925923 0.098235
17924 1 0.352356 0.263994 0.09815
17925 1 0.338288 0.593406 0.122519
17926 1 0.380501 0.602425 0.0980828
17927 1 0.366423 0.931856 0.122481
17370 1 0.394558 0.772275 0.0736705
17376 1 0.394558 0.272275 0.0736705
17379 1 0.42271 0.11106 0.0737719
17385 1 0.42271 0.61106 0.0737719
17922 1 0.394543 0.770529 0.122458
17928 1 0.394543 0.270529 0.122458
17929 1 0.408607 0.440827 0.0980715
17930 1 0.436742 0.779696 0.0981391
17931 1 0.422661 0.109376 0.122474
17935 1 0.408607 0.940827 0.0980715
17936 1 0.436742 0.279696 0.0981391
17937 1 0.422661 0.609376 0.122474
17381 1 0.450843 0.449671 0.0738113
17382 1 0.478955 0.787934 0.0737657
17387 1 0.450843 0.949671 0.0738113
17388 1 0.478955 0.287934 0.0737657
17932 1 0.464879 0.118489 0.0981577
17933 1 0.450793 0.4485 0.122505
17934 1 0.478922 0.787597 0.122513
17938 1 0.464879 0.618489 0.0981577
17939 1 0.450793 0.9485 0.122505
17940 1 0.478922 0.287597 0.122513
17941 1 0.49299 0.457076 0.0981377
17947 1 0.49299 0.957076 0.0981377
18438 3 0.141124 0.725091 0.170988
18444 3 0.141124 0.225091 0.170988
18445 3 0.155198 0.396186 0.146617
18446 3 0.183345 0.732867 0.146617
18447 3 0.169271 0.0616341 0.170988
18451 3 0.155198 0.896186 0.146617
18452 3 0.183345 0.232867 0.146617
18453 3 0.169271 0.561634 0.170988
18448 1 0.211702 0.0705093 0.14683
18449 1 0.197622 0.398975 0.171253
18450 1 0.225707 0.73646 0.171206
18454 1 0.211702 0.570509 0.14683
18455 1 0.197622 0.898975 0.171253
18456 1 0.225707 0.23646 0.171206
18457 1 0.239851 0.40805 0.146923
18459 1 0.253845 0.0742817 0.171212
18463 1 0.239851 0.90805 0.146923
18465 1 0.253845 0.574282 0.171212
18458 1 0.267934 0.745778 0.146857
18460 1 0.296069 0.0839115 0.146866
18461 1 0.281973 0.41221 0.1712
18462 1 0.31011 0.750576 0.171196
18464 1 0.267934 0.245778 0.146857
18466 1 0.296069 0.583911 0.146866
18467 1 0.281973 0.91221 0.1712
18468 1 0.31011 0.250576 0.171196
18469 1 0.324201 0.422168 0.146857
18470 1 0.352339 0.760835 0.146845
18471 1 0.338247 0.0892492 0.171191
18472 1 0.380468 0.0996738 0.14683
18473 1 0.366384 0.428276 0.171191
18475 1 0.324201 0.922168 0.146857
18476 1 0.352339 0.260835 0.146845
18477 1 0.338247 0.589249 0.171191
18478 1 0.380468 0.599674 0.14683
18479 1 0.366384 0.928276 0.171191
18474 1 0.394516 0.767597 0.171196
18480 1 0.394516 0.267597 0.171196
18481 1 0.408592 0.43874 0.146835
18482 1 0.436718 0.778069 0.146856
18483 1 0.422645 0.107213 0.171212
18487 1 0.408592 0.93874 0.146835
18488 1 0.436718 0.278069 0.146856
18489 1 0.422645 0.607213 0.171212
18484 1 0.464849 0.117585 0.146875
18485 1 0.450777 0.447086 0.171231
18486 1 0.47891 0.787109 0.171243
18490 1 0.464849 0.617585 0.146875
18491 1 0.450777 0.947086 0.171231
18492 1 0.47891 0.287109 0.171243
18493 1 0.492978 0.457105 0.146881
18499 1 0.492978 0.957105 0.146881
18986 3 0.0989034 0.717775 0.19536
18987 3 0.0848298 0.0466828 0.219731
18988 3 0.127051 0.0538872 0.19536
18989 3 0.112977 0.382601 0.219731
18992 3 0.0989034 0.217776 0.19536
18993 3 0.0848298 0.546682 0.219731
18994 3 0.127051 0.553887 0.19536
18995 3 0.112977 0.882602 0.219731
19537 3 0.0707563 0.375558 0.244102
19538 3 0.0989034 0.711265 0.244102
19540 1 0.127275 0.0476526 0.244352
19543 3 0.0707563 0.875558 0.244102
19544 3 0.0989034 0.211265 0.244102
19546 1 0.127275 0.547653 0.244352
18990 1 0.141316 0.719677 0.219984
18996 1 0.141316 0.219677 0.219984
18997 1 0.155165 0.390017 0.195476
18998 1 0.183399 0.727319 0.195508
18999 1 0.169393 0.0558659 0.219912
19003 1 0.155165 0.890017 0.195476
19004 1 0.183399 0.227319 0.195508
19005 1 0.169393 0.555866 0.219912
19549 1 0.155356 0.384218 0.244281
19550 1 0.183449 0.720756 0.244218
19555 1 0.155356 0.884218 0.244281
19556 1 0.183449 0.220756 0.244218
19000 1 0.211559 0.0647783 0.195529
19001 1 0.197476 0.392673 0.219841
19002 1 0.225618 0.730146 0.21985
19006 1 0.211559 0.564778 0.195529
19007 1 0.197476 0.892673 0.219841
19008 1 0.225618 0.230146 0.21985
19009 1 0.239722 0.402337 0.195534
19011 1 0.253759 0.0679025 0.219853
19015 1 0.239722 0.902337 0.195534
19017 1 0.253759 0.567902 0.219853
19552 1 0.211548 0.057728 0.244184
19558 1 0.211548 0.557728 0.244184
19561 1 0.23967 0.395247 0.244181
19567 1 0.23967 0.895247 0.244181
19010 1 0.267867 0.740269 0.195531
19012 1 0.296008 0.0785107 0.195527
19013 1 0.281904 0.406062 0.219857
19014 1 0.310046 0.744698 0.219861
19016 1 0.267867 0.240269 0.195531
19018 1 0.296008 0.578511 0.195527
19019 1 0.281904 0.906062 0.219857
19020 1 0.310046 0.244698 0.219861
19562 1 0.267803 0.733244 0.244183
19564 1 0.295941 0.0717508 0.244187
19568 1 0.267803 0.233244 0.244183
19570 1 0.295941 0.571751 0.244187
19021 1 0.32415 0.417204 0.195531
19022 1 0.352291 0.756332 0.195536
19023 1 0.33819 0.0838499 0.21987
19024 1 0.380429 0.0958696 0.195546
19025 1 0.366333 0.423519 0.219884
19027 1 0.32415 0.917204 0.195531
19028 1 0.352291 0.256332 0.195536
19029 1 0.33819 0.58385 0.21987
19030 1 0.380429 0.59587 0.195546
19031 1 0.366333 0.923519 0.219884
19573 1 0.324083 0.410831 0.244196
19574 1 0.352229 0.750528 0.244211
19576 1 0.380377 0.0908632 0.244234
19579 1 0.324083 0.910831 0.244196
19580 1 0.352229 0.250528 0.244211
19582 1 0.380377 0.590863 0.244234
19026 1 0.394476 0.763692 0.219904
19032 1 0.394476 0.263692 0.219904
19033 1 0.408566 0.435785 0.195562
19034 1 0.436702 0.776038 0.195583
19035 1 0.422619 0.10432 0.219928
19039 1 0.408566 0.935785 0.195562
19040 1 0.436702 0.276038 0.195583
19041 1 0.422619 0.60432 0.219928
19585 1 0.408526 0.431814 0.244262
19586 1 0.436677 0.773314 0.24429
19591 1 0.408526 0.931814 0.244262
19592 1 0.436677 0.273314 0.24429
19036 1 0.464839 0.116547 0.195599
19037 1 0.450762 0.445331 0.219949
19038 1 0.478906 0.786593 0.219963
19042 1 0.464839 0.616547 0.195599
19043 1 0.450762 0.945331 0.219949
19044 1 0.478906 0.286593 0.219963
19588 1 0.464828 0.115228 0.244311
19594 1 0.464828 0.615228 0.244311
19045 1 0.492976 0.457187 0.195606
19051 1 0.492976 0.957187 0.195606
19597 1 0.492978 0.457361 0.244319
19603 1 0.492978 0.957361 0.244319
19530 3 0.0566827 0.704431 0.268473
19536 3 0.0566827 0.204431 0.268473
20080 3 0.0426091 0.0333275 0.292845
20086 3 0.0426091 0.533327 0.292845
19539 3 0.0848298 0.039908 0.268473
19541 1 0.113158 0.375745 0.268578
19545 3 0.0848298 0.539907 0.268473
19547 1 0.113158 0.875745 0.268578
20089 3 0.0707563 0.368562 0.292845
20090 1 0.0992306 0.703834 0.292914
20092 1 0.127233 0.0396962 0.29291
20095 3 0.0707563 0.868563 0.292845
20096 1 0.0992306 0.203834 0.292914
20098 1 0.127233 0.539696 0.29291
19542 1 0.141272 0.712145 0.268602
19548 1 0.141272 0.212145 0.268602
19551 1 0.169392 0.0485971 0.268586
19557 1 0.169392 0.548597 0.268586
20101 1 0.15533 0.376126 0.292925
20102 1 0.183424 0.712721 0.292906
20107 1 0.15533 0.876126 0.292925
20108 1 0.183424 0.212721 0.292906
19553 1 0.197489 0.38532 0.268546
19554 1 0.225595 0.722462 0.268525
19559 1 0.197489 0.88532 0.268546
19560 1 0.225595 0.222462 0.268525
19563 1 0.253712 0.0601676 0.268517
19569 1 0.253712 0.560168 0.268517
20104 1 0.211524 0.049596 0.292882
20110 1 0.211524 0.549596 0.292882
20113 1 0.239629 0.38694 0.292863
20119 1 0.239629 0.88694 0.292863
19565 1 0.28184 0.398437 0.268516
19566 1 0.309975 0.737326 0.26852
19571 1 0.28184 0.898437 0.268516
19572 1 0.309975 0.237326 0.26852
20114 1 0.267744 0.724858 0.292852
20116 1 0.295869 0.0634243 0.292848
20120 1 0.267744 0.224858 0.292852
20122 1 0.295869 0.563424 0.292848
20134 1 0.380305 0.58408 0.292897
19575 1 0.338118 0.0769134 0.268533
20132 1 0.35215 0.242926 0.292869
19577 1 0.366267 0.417265 0.268554
20131 1 0.324004 0.902743 0.292854
19581 1 0.338118 0.576913 0.268533
19583 1 0.366267 0.917265 0.268554
20128 1 0.380305 0.0840802 0.292897
20126 1 0.35215 0.742926 0.292869
20125 1 0.324004 0.402743 0.292854
20144 1 0.436637 0.269382 0.292973
20143 1 0.408468 0.926255 0.292933
20138 1 0.436637 0.769382 0.292973
20137 1 0.408468 0.426255 0.292933
19578 1 0.394422 0.758418 0.268585
19584 1 0.394422 0.258418 0.268585
19587 1 0.42258 0.100338 0.268619
19593 1 0.42258 0.600338 0.268619
20146 1 0.464808 0.613261 0.293003
20140 1 0.464808 0.113261 0.293003
19589 1 0.450739 0.4429 0.26865
19590 1 0.478899 0.78589 0.268667
19595 1 0.450739 0.9429 0.26865
19596 1 0.478899 0.28589 0.268667
20149 1 0.49298 0.457559 0.293014
20155 1 0.49298 0.957559 0.293014
20640 3 0.0566827 0.189531 0.365958
20639 3 0.0285356 0.85491 0.365958
20638 3 0.0426091 0.526035 0.341587
20634 3 0.0566827 0.689531 0.365958
20633 3 0.0285356 0.35491 0.365958
20632 3 0.0426091 0.0260354 0.341587
20082 3 0.0566827 0.697262 0.317216
20088 3 0.0566827 0.197262 0.317216
20651 1 0.113085 0.859406 0.365953
20650 1 0.12719 0.531427 0.341621
20649 1 0.0849781 0.524298 0.365927
20648 1 0.0991126 0.195888 0.341601
20647 1 0.0708359 0.861356 0.341499
20645 1 0.113085 0.359406 0.365953
20644 1 0.12719 0.0314275 0.341621
20643 1 0.0849781 0.024298 0.365927
20642 1 0.0991126 0.695888 0.341601
20641 1 0.0708359 0.361356 0.341499
20091 1 0.0851409 0.0317835 0.317254
20093 1 0.113205 0.367597 0.317263
20097 1 0.0851409 0.531784 0.317254
20099 1 0.113205 0.867597 0.317263
20661 1 0.169302 0.530696 0.365965
20660 1 0.183376 0.203624 0.341605
20659 1 0.15528 0.867352 0.341618
20655 1 0.169302 0.0306959 0.365965
20654 1 0.183376 0.703624 0.341605
20653 1 0.15528 0.367352 0.341618
20652 1 0.141199 0.194865 0.36597
20646 1 0.141199 0.694865 0.36597
20094 1 0.141274 0.703639 0.317268
20100 1 0.141274 0.203639 0.317268
20103 1 0.169355 0.0399867 0.317262
20109 1 0.169355 0.539987 0.317262
20673 1 0.253593 0.540443 0.365898
20671 1 0.239571 0.877271 0.341559
20667 1 0.253593 0.0404425 0.365898
20665 1 0.239571 0.377271 0.341559
20664 1 0.225497 0.203399 0.365924
20663 1 0.197401 0.866852 0.365948
20662 1 0.211472 0.540228 0.341583
20658 1 0.225497 0.703399 0.365924
20657 1 0.197401 0.366852 0.365948
20656 1 0.211472 0.040228 0.341583
20105 1 0.197451 0.376621 0.317243
20106 1 0.225549 0.713613 0.31722
20111 1 0.197451 0.876621 0.317243
20112 1 0.225549 0.213613 0.31722
20115 1 0.253654 0.05111 0.3172
20121 1 0.253654 0.55111 0.3172
20676 1 0.309802 0.216629 0.365852
20675 1 0.281694 0.878122 0.365873
20674 1 0.295786 0.553212 0.34152
20672 1 0.267675 0.214881 0.341537
20670 1 0.309802 0.716629 0.365852
20669 1 0.281694 0.378122 0.365873
20668 1 0.295786 0.0532122 0.34152
20666 1 0.267675 0.714881 0.341537
20124 1 0.309892 0.228129 0.317181
20123 1 0.281768 0.889238 0.317186
20117 1 0.281768 0.389238 0.317186
20118 1 0.309892 0.728129 0.317181
20687 1 0.366059 0.897175 0.365837
20686 1 0.380202 0.574554 0.341533
20685 1 0.337921 0.556203 0.365838
20684 1 0.352047 0.232801 0.341514
20683 1 0.323909 0.892442 0.341511
20681 1 0.366059 0.397175 0.365837
20680 1 0.380202 0.0745535 0.341533
20679 1 0.337921 0.0562033 0.365838
20678 1 0.352047 0.732801 0.341514
20677 1 0.323909 0.392442 0.341511
20135 1 0.366178 0.908833 0.317203
20133 1 0.338028 0.567934 0.317185
20129 1 0.366178 0.408833 0.317203
20127 1 0.338028 0.0679343 0.317185
20697 1 0.422411 0.585069 0.365897
20696 1 0.436569 0.263172 0.34162
20695 1 0.408377 0.917966 0.34157
20691 1 0.422411 0.0850693 0.365897
20690 1 0.436569 0.763172 0.34162
20689 1 0.408377 0.417966 0.34157
20688 1 0.39422 0.23997 0.365856
20682 1 0.39422 0.739971 0.365856
20145 1 0.422517 0.594452 0.317279
20139 1 0.422517 0.0944519 0.317279
20136 1 0.394342 0.250981 0.317236
20130 1 0.394342 0.750981 0.317236
20700 1 0.47886 0.282522 0.365991
20699 1 0.450628 0.932736 0.365952
20698 1 0.464772 0.609976 0.341663
20694 1 0.47886 0.782523 0.365991
20693 1 0.450628 0.432737 0.365952
20692 1 0.464772 0.109975 0.341663
20148 1 0.478886 0.284707 0.317348
20147 1 0.4507 0.939141 0.317322
20142 1 0.478886 0.784707 0.317348
20141 1 0.4507 0.439141 0.317322
20707 1 0.49298 0.957738 0.341679
20701 1 0.49298 0.457738 0.341679
21742 3 0.0426091 0.510116 0.439072
21740 3 0.014462 0.176207 0.439072
21736 3 0.0426091 0.0101165 0.439072
21734 3 0.014462 0.676206 0.439072
21192 1 0.056979 0.180427 0.414764
21191 3 0.0285356 0.847147 0.414701
21190 3 0.0426091 0.518261 0.390329
21188 3 0.014462 0.183911 0.390329
21186 1 0.056979 0.680427 0.414764
21185 3 0.0285356 0.347146 0.414701
21184 3 0.0426091 0.0182612 0.390329
21182 3 0.014462 0.68391 0.390329
21754 1 0.127162 0.512585 0.439063
21752 1 0.0990743 0.178117 0.439076
21751 1 0.070979 0.843872 0.439083
21748 1 0.127162 0.0125853 0.439063
21746 1 0.0990743 0.678117 0.439076
21745 1 0.070979 0.343872 0.439083
21203 1 0.113121 0.850022 0.414692
21202 1 0.127148 0.522331 0.390321
21201 1 0.0850555 0.515291 0.414715
21200 1 0.0990627 0.187147 0.390303
21199 1 0.0710809 0.852452 0.390364
21197 1 0.113121 0.350022 0.414692
21196 1 0.127148 0.0223307 0.390321
21195 1 0.0850555 0.0152907 0.414715
21194 1 0.0990627 0.687147 0.390303
21193 1 0.0710809 0.352452 0.390364
21764 1 0.183349 0.182311 0.43904
21763 1 0.155255 0.847344 0.439054
21758 1 0.183349 0.682311 0.43904
21757 1 0.155255 0.347344 0.439054
21213 1 0.169292 0.520315 0.414682
21212 1 0.183339 0.193527 0.390314
21211 1 0.155242 0.857807 0.390324
21207 1 0.169292 0.0203155 0.414682
21206 1 0.183339 0.693527 0.390314
21205 1 0.155242 0.357807 0.390324
21204 1 0.141199 0.18504 0.414689
21198 1 0.141199 0.68504 0.414689
21775 1 0.239532 0.853008 0.438996
21769 1 0.239532 0.353008 0.438996
21766 1 0.211442 0.517513 0.43902
21760 1 0.211442 0.0175133 0.43902
21225 1 0.253566 0.527899 0.414616
21223 1 0.239527 0.866002 0.390268
21219 1 0.253566 0.0278991 0.414616
21217 1 0.239527 0.366002 0.390268
21216 1 0.225477 0.191658 0.414643
21215 1 0.197385 0.855832 0.414666
21214 1 0.211434 0.52956 0.390294
21210 1 0.225477 0.691658 0.414643
21209 1 0.197385 0.355832 0.414666
21208 1 0.211434 0.0295602 0.390294
21778 1 0.2957 0.525375 0.438938
21776 1 0.267618 0.18891 0.438968
21772 1 0.2957 0.0253745 0.438938
21770 1 0.267618 0.68891 0.438968
21228 1 0.30974 0.202282 0.414554
21227 1 0.281653 0.864708 0.414585
21226 1 0.295714 0.540667 0.390211
21224 1 0.26762 0.202978 0.39024
21222 1 0.30974 0.702282 0.414554
21221 1 0.281653 0.364708 0.414585
21220 1 0.295714 0.0406672 0.390211
21218 1 0.26762 0.702978 0.39024
21790 1 0.379937 0.541104 0.438823
21788 1 0.351855 0.201011 0.438864
21787 1 0.323778 0.862625 0.438903
21784 1 0.379937 0.0411041 0.438823
21782 1 0.351855 0.70101 0.438864
21781 1 0.323778 0.362625 0.438903
21239 1 0.365933 0.881001 0.414491
21238 1 0.380063 0.560811 0.390156
21237 1 0.337831 0.540899 0.414521
21236 1 0.351929 0.219179 0.390164
21235 1 0.323816 0.879292 0.390185
21233 1 0.365933 0.381001 0.414491
21232 1 0.380063 0.0608105 0.390156
21231 1 0.337831 0.0408994 0.414521
21230 1 0.351929 0.719179 0.390164
21229 1 0.323816 0.379292 0.390185
21800 1 0.436187 0.231746 0.438733
21799 1 0.408037 0.883895 0.43878
21794 1 0.436187 0.731746 0.438733
21793 1 0.408037 0.383894 0.43878
21249 1 0.422224 0.569008 0.414466
21248 1 0.436442 0.252393 0.390211
21247 1 0.40823 0.904892 0.390169
21243 1 0.422224 0.0690088 0.414466
21242 1 0.436442 0.752392 0.390211
21241 1 0.40823 0.404892 0.390169
21240 1 0.394057 0.22329 0.41447
21234 1 0.394057 0.72329 0.41447
21802 1 0.464501 0.589484 0.43877
21796 1 0.464501 0.089483 0.43877
21252 1 0.478801 0.277822 0.414573
21251 1 0.45047 0.920242 0.414506
21250 1 0.464699 0.603815 0.390272
21246 1 0.478801 0.777823 0.414573
21245 1 0.45047 0.420242 0.414506
21244 1 0.464699 0.103814 0.390272
21811 1 0.492975 0.958071 0.438856
21805 1 0.492975 0.45807 0.438856
21259 1 0.492978 0.957917 0.390298
21253 1 0.492978 0.457916 0.390298
21744 1 0.0570016 0.172538 0.463435
21743 3 0.0285356 0.839109 0.463443
21741 3 0.00038843 0.505453 0.463443
21738 1 0.0570016 0.672538 0.463435
21737 3 0.0285356 0.339109 0.463443
21735 3 0.00038843 0.00545386 0.463443
22286 3 0.014462 0.668319 0.487814
22288 1 0.0429245 0.00138099 0.487821
22292 3 0.014462 0.16832 0.487814
22294 1 0.0429245 0.501381 0.487821
21755 1 0.113127 0.840407 0.463441
21753 1 0.0850336 0.506339 0.46344
21749 1 0.113127 0.340407 0.463441
21747 1 0.0850336 0.00633894 0.46344
22297 1 0.0710058 0.334922 0.487828
22298 1 0.0990972 0.668533 0.487818
22300 1 0.12719 0.00232859 0.487806
22303 1 0.0710058 0.834922 0.487828
22304 1 0.0990972 0.168533 0.487818
22306 1 0.12719 0.502329 0.487806
21765 1 0.16932 0.509098 0.463415
21759 1 0.16932 0.009098 0.463415
21756 1 0.141222 0.174676 0.46343
21750 1 0.141222 0.674676 0.46343
22309 1 0.155295 0.336257 0.487791
22310 1 0.183398 0.670254 0.487774
22315 1 0.155295 0.836257 0.487791
22316 1 0.183398 0.170254 0.487774
21777 1 0.253603 0.513448 0.463354
21771 1 0.253603 0.0134476 0.463354
21768 1 0.225512 0.178443 0.463377
21767 1 0.197417 0.843678 0.463398
21762 1 0.225512 0.678443 0.463377
21761 1 0.197417 0.343678 0.463398
22312 1 0.2115 0.00432829 0.487756
22318 1 0.2115 0.504328 0.487756
22321 1 0.239599 0.338494 0.487737
22327 1 0.239599 0.838494 0.487737
21780 1 0.309768 0.184641 0.463298
21779 1 0.281689 0.848799 0.463327
21774 1 0.309768 0.684641 0.463298
21773 1 0.281689 0.348799 0.463327
22322 1 0.267694 0.672793 0.487716
22324 1 0.295784 0.0072835 0.487693
22328 1 0.267694 0.172793 0.487716
22330 1 0.295784 0.507283 0.487693
21791 1 0.365899 0.858925 0.463222
21789 1 0.337838 0.521214 0.463263
21785 1 0.365899 0.358925 0.463222
21783 1 0.337838 0.0212145 0.463263
22333 1 0.323865 0.342069 0.487669
22334 1 0.351933 0.677338 0.487641
22336 1 0.379979 0.013397 0.487609
22339 1 0.323865 0.842069 0.487669
22340 1 0.351933 0.177337 0.487641
22342 1 0.379979 0.513398 0.487609
21801 1 0.421996 0.54127 0.463097
21795 1 0.421996 0.0412702 0.463097
21792 1 0.39395 0.198489 0.463171
21786 1 0.39395 0.69849 0.463171
22345 1 0.407985 0.350817 0.487564
22346 1 0.43595 0.690874 0.487497
22351 1 0.407985 0.850817 0.487564
22352 1 0.43595 0.190875 0.487497
21804 1 0.4786 0.262481 0.463049
21803 1 0.450112 0.891831 0.462976
21798 1 0.4786 0.762481 0.463049
21797 1 0.450112 0.391832 0.462976
22348 1 0.464003 0.0413922 0.487341
22354 1 0.464003 0.541392 0.487341
22357 1 0.492972 0.45824 0.487389
22363 1 0.492972 0.958241 0.487389
22287 3 0.00038843 0.997752 0.512186
22289 3 0.0285356 0.330952 0.512186
22290 1 0.0570124 0.663992 0.512227
22293 3 0.00038843 0.497752 0.512186
22295 3 0.0285356 0.830952 0.512186
22296 1 0.0570124 0.163992 0.512227
22838 3 0.014462 0.6604 0.536557
22840 1 0.0426737 0.993997 0.536634
22841 3 0.0285356 0.322844 0.560928
22842 1 0.057027 0.654736 0.560915
22844 3 0.014462 0.1604 0.536557
22846 1 0.0426737 0.493997 0.536634
22847 3 0.0285356 0.822845 0.560928
22848 1 0.057027 0.154736 0.560915
22299 1 0.0850569 0.997049 0.512207
22301 1 0.113161 0.330374 0.512183
22305 1 0.0850569 0.497049 0.512207
22307 1 0.113161 0.830374 0.512183
22849 1 0.0710273 0.326102 0.53658
22850 1 0.099133 0.658863 0.536561
22851 1 0.0851177 0.987592 0.560945
22852 1 0.127242 0.991838 0.536542
22853 1 0.11322 0.320299 0.560919
22855 1 0.0710273 0.826102 0.53658
22856 1 0.099133 0.158863 0.536561
22857 1 0.0851177 0.487592 0.560945
22858 1 0.127242 0.491838 0.536542
22859 1 0.11322 0.820299 0.560919
22302 1 0.141268 0.663831 0.512167
22308 1 0.141268 0.163831 0.512167
22311 1 0.169378 0.997308 0.51215
22317 1 0.169378 0.497308 0.51215
22854 1 0.141328 0.652945 0.560898
22860 1 0.141328 0.152945 0.560898
22861 1 0.155356 0.324867 0.536524
22862 1 0.183471 0.65781 0.536507
22863 1 0.169447 0.985473 0.56088
22867 1 0.155356 0.824867 0.536524
22868 1 0.183471 0.15781 0.536507
22869 1 0.169447 0.485473 0.56088
22313 1 0.197488 0.330768 0.512133
22314 1 0.225596 0.664192 0.512116
22319 1 0.197488 0.830768 0.512133
22320 1 0.225596 0.164193 0.512116
22323 1 0.253702 0.997568 0.512099
22329 1 0.253702 0.497568 0.512099
22864 1 0.211587 0.990619 0.536491
22865 1 0.197567 0.317797 0.560864
22866 1 0.22569 0.649851 0.560849
22870 1 0.211587 0.490619 0.536491
22871 1 0.197567 0.817797 0.560864
22872 1 0.22569 0.149851 0.560849
22873 1 0.239702 0.323247 0.536476
22875 1 0.253813 0.981538 0.560838
22879 1 0.239702 0.823247 0.536476
22881 1 0.253813 0.481538 0.560838
22325 1 0.281806 0.330877 0.512082
22326 1 0.309905 0.664095 0.512067
22331 1 0.281806 0.830877 0.512082
22332 1 0.309905 0.164094 0.512067
22874 1 0.267818 0.655618 0.536463
22876 1 0.295932 0.987626 0.536453
22877 1 0.281938 0.312709 0.560831
22878 1 0.310062 0.643163 0.560831
22880 1 0.267818 0.155618 0.536463
22882 1 0.295932 0.487626 0.536453
22883 1 0.281938 0.812709 0.560831
22884 1 0.310062 0.143163 0.560831
22335 1 0.337996 0.997189 0.512053
22337 1 0.366077 0.330048 0.512044
22341 1 0.337996 0.49719 0.512053
22343 1 0.366077 0.830048 0.512044
22885 1 0.324045 0.319113 0.536449
22886 1 0.352154 0.649744 0.536454
22887 1 0.338185 0.972536 0.560844
22888 1 0.380259 0.978853 0.536477
22889 1 0.366304 0.300189 0.560876
22891 1 0.324045 0.819113 0.536449
22892 1 0.352154 0.149744 0.536454
22893 1 0.338185 0.472536 0.560844
22894 1 0.380259 0.478853 0.536477
22895 1 0.366304 0.800189 0.560876
22338 1 0.394138 0.662373 0.512041
22344 1 0.394138 0.162373 0.512041
22347 1 0.422175 0.993301 0.512057
22353 1 0.422175 0.4933 0.512057
22890 1 0.394421 0.625001 0.560944
22896 1 0.394421 0.125 0.560944
22897 1 0.408362 0.30504 0.536534
22898 1 0.436486 0.625001 0.536663
22899 1 0.422535 0.94496 0.561078
22903 1 0.408362 0.80504 0.536534
22904 1 0.436486 0.125 0.536662
22905 1 0.422535 0.444961 0.561078
22349 1 0.450259 0.320467 0.512123
22350 1 0.478532 0.625 0.512392
22355 1 0.450259 0.820467 0.512123
22356 1 0.478532 0.125 0.512392
22900 1 0.464629 0.929533 0.537007
22901 1 0.450644 0.2567 0.561357
22902 1 0.478805 0.559126 0.561709
22906 1 0.464629 0.429534 0.537007
22907 1 0.450644 0.756699 0.561357
22908 1 0.478805 0.0591262 0.561709
22909 1 0.492967 0.208609 0.537497
22915 1 0.492967 0.708608 0.537497
23390 3 0.014462 0.652602 0.585299
23392 3 0.0426091 0.985096 0.585299
23393 3 0.0285356 0.314949 0.609671
23394 1 0.0567521 0.647708 0.609732
23396 3 0.014462 0.152603 0.585299
23398 3 0.0426091 0.485096 0.585299
23399 3 0.0285356 0.81495 0.609671
23400 1 0.0567521 0.147708 0.609732
23401 1 0.0711023 0.317106 0.585327
23402 1 0.0991679 0.649304 0.585302
23403 1 0.0851207 0.978923 0.609663
23404 1 0.127291 0.981585 0.585271
23405 1 0.113247 0.310788 0.609639
23407 1 0.0711023 0.817106 0.585327
23408 1 0.0991679 0.149304 0.585302
23409 1 0.0851207 0.478923 0.609663
23410 1 0.127291 0.481585 0.585271
23411 1 0.113247 0.810788 0.609639
23406 1 0.141366 0.642609 0.609623
23412 1 0.141366 0.142609 0.609623
23413 1 0.155412 0.313756 0.585252
23414 1 0.183535 0.645701 0.585235
23415 1 0.169491 0.974274 0.609606
23419 1 0.155412 0.813756 0.585252
23420 1 0.183535 0.145701 0.585235
23421 1 0.169491 0.474274 0.609606
23416 1 0.211662 0.977339 0.58522
23417 1 0.197619 0.30562 0.60959
23418 1 0.22575 0.636538 0.609578
23422 1 0.211662 0.477339 0.58522
23423 1 0.197619 0.80562 0.60959
23424 1 0.22575 0.136538 0.609578
23425 1 0.239791 0.308556 0.585209
23427 1 0.253883 0.966877 0.609572
23431 1 0.239791 0.808556 0.585209
23433 1 0.253883 0.466877 0.609572
23426 1 0.26792 0.639201 0.585203
23428 1 0.29605 0.969064 0.585206
23429 1 0.282016 0.296451 0.609575
23430 1 0.310146 0.625 0.60959
23432 1 0.26792 0.139201 0.585203
23434 1 0.29605 0.469064 0.585206
23435 1 0.282016 0.796451 0.609575
23436 1 0.310146 0.125 0.60959
23437 1 0.324179 0.297829 0.585221
23438 1 0.352303 0.625 0.585256
23439 1 0.338271 0.952172 0.609625
23440 1 0.380422 0.949811 0.585322
23441 1 0.36639 0.277465 0.609686
23443 1 0.324179 0.797829 0.585221
23444 1 0.352303 0.125 0.585256
23445 1 0.338271 0.452172 0.609625
23446 1 0.380422 0.449812 0.585323
23447 1 0.36639 0.777464 0.609686
23442 1 0.3945 0.600256 0.609786
23448 1 0.3945 0.100256 0.609786
23449 1 0.408533 0.271148 0.58544
23450 1 0.436639 0.587627 0.58564
23451 1 0.422606 0.919953 0.609935
23455 1 0.408533 0.771147 0.58544
23456 1 0.436639 0.0876278 0.58564
23457 1 0.422606 0.419952 0.609935
23452 1 0.464764 0.899184 0.585889
23453 1 0.450723 0.236603 0.610116
23454 1 0.478877 0.551511 0.610238
23458 1 0.464764 0.399183 0.585889
23459 1 0.450723 0.736603 0.610116
23460 1 0.478877 0.0515112 0.610238
23461 1 0.492963 0.20873 0.585991
23467 1 0.492964 0.708731 0.585991
23944 3 0.0426091 0.977152 0.634042
23945 3 0.0285356 0.307406 0.658413
23946 3 0.0566827 0.639229 0.658413
23950 3 0.0426091 0.477151 0.634042
23951 3 0.0285356 0.807406 0.658413
23952 3 0.0566827 0.13923 0.658413
24496 3 0.0426091 0.969648 0.682784
24502 3 0.0426091 0.469648 0.682784
23953 1 0.0711031 0.308179 0.633995
23954 1 0.099215 0.640277 0.634002
23955 1 0.0851946 0.970472 0.658352
23956 1 0.12732 0.971981 0.633995
23957 1 0.113232 0.301889 0.658374
23959 1 0.0711031 0.808179 0.633995
23960 1 0.099215 0.140277 0.634002
23961 1 0.0851946 0.470472 0.658352
23962 1 0.12732 0.471981 0.633995
23963 1 0.113232 0.801889 0.658374
24505 3 0.0707563 0.301209 0.682784
24506 1 0.0991145 0.632542 0.682718
24508 1 0.127233 0.963567 0.682728
24511 3 0.0707563 0.801209 0.682784
24512 1 0.0991145 0.132542 0.682718
24514 1 0.127233 0.463567 0.682728
23958 1 0.141353 0.633203 0.658355
23964 1 0.141353 0.133203 0.658355
23965 1 0.155431 0.303443 0.63398
23966 1 0.183559 0.634612 0.633961
23967 1 0.169481 0.964236 0.658333
23971 1 0.155431 0.803443 0.63398
23972 1 0.183559 0.134612 0.633961
23973 1 0.169481 0.464236 0.658333
24517 1 0.155384 0.294425 0.682701
24518 1 0.183532 0.625 0.682676
24523 1 0.155384 0.794425 0.682701
24524 1 0.183532 0.125 0.682676
23968 1 0.211693 0.965352 0.633945
23969 1 0.19762 0.294877 0.658312
23970 1 0.22576 0.625 0.658301
23974 1 0.211693 0.465352 0.633945
23975 1 0.19762 0.794877 0.658312
23976 1 0.22576 0.125 0.658301
23977 1 0.239829 0.295535 0.633937
23979 1 0.253898 0.954465 0.658301
23983 1 0.239829 0.795535 0.633937
23985 1 0.253898 0.454465 0.658301
24520 1 0.21168 0.955124 0.68266
24526 1 0.21168 0.455124 0.68266
24529 1 0.239823 0.284648 0.682658
24535 1 0.239823 0.784648 0.682658
23978 1 0.267963 0.625 0.63394
23980 1 0.296094 0.95355 0.633955
23981 1 0.28203 0.283123 0.658315
23982 1 0.310157 0.610799 0.658345
23984 1 0.267963 0.125 0.63394
23986 1 0.296094 0.45355 0.633955
23987 1 0.28203 0.783123 0.658315
23988 1 0.310157 0.110799 0.658345
24530 1 0.267959 0.613462 0.682671
24532 1 0.296087 0.941445 0.682698
24536 1 0.267959 0.113462 0.682671
24538 1 0.296087 0.441445 0.682698
23989 1 0.32422 0.280936 0.633987
23990 1 0.352339 0.606837 0.634042
23991 1 0.338277 0.937291 0.658394
23992 1 0.38045 0.930888 0.634127
23993 1 0.36639 0.262374 0.658465
23995 1 0.32422 0.780936 0.633987
23996 1 0.352339 0.106838 0.634042
23997 1 0.338277 0.437291 0.658394
23998 1 0.38045 0.430887 0.634127
23999 1 0.36639 0.762374 0.658465
24541 1 0.324209 0.268463 0.682742
24542 1 0.352324 0.594383 0.682804
24544 1 0.380437 0.919124 0.682883
24547 1 0.324209 0.768463 0.682742
24548 1 0.352324 0.0943825 0.682804
24550 1 0.380437 0.419124 0.682883
23994 1 0.3945 0.585906 0.658561
24000 1 0.3945 0.0859059 0.658561
24001 1 0.408558 0.252811 0.634244
24002 1 0.436672 0.572663 0.634383
24003 1 0.422614 0.907931 0.658672
24007 1 0.408558 0.752811 0.634244
24008 1 0.436672 0.0726627 0.634383
24009 1 0.422614 0.407932 0.658672
24553 1 0.408552 0.242717 0.682974
24554 1 0.436675 0.565359 0.683064
24559 1 0.408552 0.742717 0.682974