ITEM: TIMESTEP
48
ITEM: NUMBER OF ATOMS
2350
ITEM: BOX BOUNDS ss pp ss
-4.1700547267000005e+01 4.1117760752000002e+01
-4.1208122699999999e-01 4.5329187729999996e+00
-4.0996922732000002e+01 4.1838062820000005e+01
ITEM: ATOMS id type xs ys zs
17354 3 0.267786 0.752966 0.0491324
17356 3 0.295933 0.0903271 0.0491324
17360 3 0.267786 0.252966 0.0491324
17362 3 0.295933 0.590327 0.0491324
16815 3 0.338154 0.0980921 0.0247612
16817 3 0.366301 0.43574 0.0247612
16821 3 0.338154 0.598092 0.0247612
16823 3 0.366301 0.935741 0.0247612
17365 3 0.32408 0.427887 0.0491324
17366 3 0.352228 0.765636 0.0491324
17368 1 0.380464 0.103201 0.0491645
17371 3 0.32408 0.927887 0.0491324
17372 3 0.352228 0.265636 0.0491324
17374 1 0.380464 0.603201 0.0491645
16818 3 0.394448 0.773531 0.0247612
16824 3 0.394448 0.273531 0.0247612
16825 3 0.408522 0.443234 0.00038994
16826 3 0.436669 0.780977 0.00038994
16827 3 0.422595 0.11144 0.0247612
16831 3 0.408522 0.943234 0.00038994
16832 3 0.436669 0.280977 0.00038994
16833 3 0.422595 0.611439 0.0247612
17377 1 0.408655 0.44278 0.0494589
17378 1 0.436799 0.780462 0.0494801
17383 1 0.408655 0.94278 0.0494589
17384 1 0.436799 0.280462 0.0494801
16828 3 0.464816 0.118787 0.00038994
16829 3 0.450743 0.44944 0.0247612
16830 3 0.47889 0.787503 0.0247612
16834 3 0.464816 0.618786 0.00038994
16835 3 0.450743 0.94944 0.0247612
16836 3 0.47889 0.287504 0.0247612
17380 1 0.464865 0.11834 0.0493487
17386 1 0.464865 0.61834 0.0493487
16837 3 0.492963 0.456635 0.00038994
16843 3 0.492963 0.956636 0.00038994
17389 1 0.492979 0.456615 0.0493306
17395 1 0.492979 0.956615 0.0493306
17895 3 0.169271 0.0668302 0.122246
17901 3 0.169271 0.56683 0.122246
17346 3 0.225565 0.745275 0.0735036
17352 3 0.225565 0.245276 0.0735036
17355 3 0.253713 0.0824266 0.0735036
17361 3 0.253713 0.582426 0.0735036
17896 3 0.211492 0.074544 0.0978748
17897 3 0.197418 0.403621 0.122246
17898 3 0.225565 0.740679 0.122246
17902 3 0.211492 0.574543 0.0978748
17903 3 0.197418 0.903622 0.122246
17904 3 0.225565 0.24068 0.122246
17905 3 0.239639 0.411663 0.0978748
17907 1 0.253868 0.0786381 0.122532
17911 3 0.239639 0.911663 0.0978748
17913 1 0.253868 0.578638 0.122532
17357 3 0.28186 0.419807 0.0735036
17358 1 0.310108 0.756985 0.073525
17363 3 0.28186 0.919808 0.0735036
17364 1 0.310108 0.256985 0.073525
17906 1 0.267952 0.749643 0.0981489
17908 1 0.296137 0.08723 0.0981457
17909 1 0.282001 0.416525 0.122465
17910 1 0.310145 0.754622 0.122443
17912 1 0.267952 0.249643 0.0981489
17914 1 0.296137 0.58723 0.0981457
17915 1 0.282001 0.916525 0.122465
17916 1 0.310145 0.254622 0.122443
17367 1 0.338317 0.0963648 0.0738129
17369 1 0.3665 0.434082 0.0737941
17373 1 0.338317 0.596365 0.0738129
17375 1 0.3665 0.934081 0.0737941
17917 1 0.32424 0.425295 0.0981065
17918 1 0.352389 0.763927 0.0981248
17919 1 0.338278 0.0929844 0.122456
17920 1 0.380511 0.102286 0.0981119
17921 1 0.366419 0.431657 0.122474
17923 1 0.32424 0.925295 0.0981065
17924 1 0.352389 0.263927 0.0981248
17925 1 0.338278 0.592984 0.122456
17926 1 0.380511 0.602286 0.0981119
17927 1 0.366419 0.931657 0.122474
17370 1 0.394589 0.772331 0.0737649
17376 1 0.394589 0.272331 0.0737649
17379 1 0.422718 0.110979 0.0737974
17385 1 0.422718 0.610979 0.0737974
17922 1 0.394547 0.770414 0.122481
17928 1 0.394547 0.270414 0.122481
17929 1 0.408631 0.440825 0.0981329
17930 1 0.436764 0.779592 0.0981369
17931 1 0.422677 0.109372 0.122489
17935 1 0.408631 0.940825 0.0981329
17936 1 0.436764 0.279592 0.0981369
17937 1 0.422677 0.609372 0.122489
17381 1 0.450837 0.449311 0.0737464
17382 1 0.478934 0.787547 0.0736895
17387 1 0.450837 0.949311 0.0737464
17388 1 0.478934 0.287547 0.0736895
17932 1 0.464881 0.118278 0.0981036
17933 1 0.450806 0.448457 0.122484
17934 1 0.478925 0.787521 0.122468
17938 1 0.464881 0.618278 0.0981036
17939 1 0.450806 0.948457 0.122484
17940 1 0.478925 0.287521 0.122468
17941 1 0.492987 0.456924 0.0980757
17947 1 0.492987 0.956924 0.0980757
18438 3 0.141124 0.72472 0.170988
18444 3 0.141124 0.224721 0.170988
18445 3 0.155198 0.395839 0.146617
18446 3 0.183345 0.732522 0.146617
18447 3 0.169271 0.0612618 0.170988
18451 3 0.155198 0.89584 0.146617
18452 3 0.183345 0.232522 0.146617
18453 3 0.169271 0.561261 0.170988
18448 1 0.211698 0.0706423 0.146846
18449 1 0.197614 0.398737 0.171255
18450 1 0.225697 0.736232 0.171184
18454 1 0.211698 0.570642 0.146846
18455 1 0.197614 0.898737 0.171255
18456 1 0.225697 0.236232 0.171184
18457 1 0.239765 0.407467 0.146811
18459 1 0.253809 0.0737473 0.171146
18463 1 0.239765 0.907467 0.146811
18465 1 0.253809 0.573747 0.171146
18458 1 0.267892 0.745316 0.146805
18460 1 0.296041 0.0834061 0.146798
18461 1 0.281942 0.411788 0.171136
18462 1 0.310079 0.750155 0.171135
18464 1 0.267892 0.245316 0.146805
18466 1 0.296041 0.583406 0.146798
18467 1 0.281942 0.911788 0.171136
18468 1 0.310079 0.250155 0.171135
18469 1 0.324178 0.421791 0.146796
18470 1 0.352317 0.760491 0.146809
18471 1 0.338219 0.0888886 0.171147
18472 1 0.380455 0.0994764 0.146827
18473 1 0.366359 0.428013 0.171167
18475 1 0.324178 0.921791 0.146796
18476 1 0.352317 0.260491 0.146809
18477 1 0.338219 0.588889 0.171147
18478 1 0.380455 0.599476 0.146827
18479 1 0.366359 0.928013 0.171167
18474 1 0.394499 0.767478 0.171188
18480 1 0.394499 0.267478 0.171188
18481 1 0.40859 0.438682 0.146842
18482 1 0.436724 0.778101 0.146851
18483 1 0.422637 0.107217 0.171204
18487 1 0.40859 0.938682 0.146842
18488 1 0.436724 0.278101 0.146851
18489 1 0.422637 0.607217 0.171204
18484 1 0.464852 0.117619 0.146848
18485 1 0.450772 0.447159 0.171214
18486 1 0.478902 0.787194 0.171215
18490 1 0.464852 0.617619 0.146848
18491 1 0.450772 0.947159 0.171214
18492 1 0.478902 0.287194 0.171215
18493 1 0.492973 0.45714 0.146841
18499 1 0.492973 0.95714 0.146841
18986 3 0.0989034 0.71739 0.19536
18987 3 0.0848298 0.0462798 0.219731
18988 3 0.127051 0.0534944 0.19536
18989 3 0.112977 0.382188 0.219731
18992 3 0.0989034 0.21739 0.19536
18993 3 0.0848298 0.546279 0.219731
18994 3 0.127051 0.553494 0.19536
18995 3 0.112977 0.882189 0.219731
19537 3 0.0707563 0.37514 0.244102
19538 3 0.0989034 0.710833 0.244102
19540 1 0.127274 0.0472641 0.24435
19543 3 0.0707563 0.87514 0.244102
19544 3 0.0989034 0.210834 0.244102
19546 1 0.127274 0.547264 0.24435
18990 1 0.141314 0.719304 0.219982
18996 1 0.141314 0.219304 0.219982
18997 1 0.155163 0.389658 0.195474
18998 1 0.183394 0.727008 0.195506
18999 1 0.16939 0.0555338 0.219908
19003 1 0.155163 0.889658 0.195474
19004 1 0.183394 0.227008 0.195506
19005 1 0.16939 0.555534 0.219908
19549 1 0.155354 0.383873 0.244277
19550 1 0.183446 0.720455 0.24421
19555 1 0.155354 0.883873 0.244277
19556 1 0.183446 0.220455 0.24421
19000 1 0.211554 0.0645217 0.195517
19001 1 0.197472 0.392387 0.219832
19002 1 0.225613 0.729881 0.21983
19006 1 0.211554 0.564522 0.195517
19007 1 0.197472 0.892387 0.219832
19008 1 0.225613 0.229881 0.21983
19009 1 0.239711 0.402031 0.195501
19011 1 0.253749 0.0675998 0.219817
19015 1 0.239711 0.902031 0.195501
19017 1 0.253749 0.5676 0.219817
19552 1 0.211545 0.0574661 0.244169
19558 1 0.211545 0.557466 0.244169
19561 1 0.239664 0.395 0.244156
19567 1 0.239664 0.895 0.244156
19010 1 0.267844 0.73985 0.195477
19012 1 0.295982 0.0781185 0.195474
19013 1 0.281885 0.405725 0.219812
19014 1 0.310022 0.744371 0.219816
19016 1 0.267844 0.23985 0.195477
19018 1 0.295982 0.578118 0.195474
19019 1 0.281885 0.905725 0.219812
19020 1 0.310022 0.244371 0.219816
19562 1 0.267792 0.732973 0.244149
19564 1 0.295923 0.0714652 0.244149
19568 1 0.267792 0.232973 0.244149
19570 1 0.295923 0.571465 0.244149
19021 1 0.324121 0.416853 0.195483
19022 1 0.352262 0.756049 0.195501
19023 1 0.338163 0.0835594 0.219831
19024 1 0.380405 0.0956913 0.195524
19025 1 0.366306 0.423298 0.219854
19027 1 0.324121 0.916853 0.195483
19028 1 0.352262 0.256049 0.195501
19029 1 0.338163 0.583559 0.219831
19030 1 0.380405 0.595691 0.195524
19031 1 0.366306 0.923298 0.219854
19573 1 0.324061 0.410556 0.244159
19574 1 0.352203 0.75029 0.244179
19576 1 0.38035 0.0906899 0.244208
19579 1 0.324061 0.910556 0.244159
19580 1 0.352203 0.25029 0.244179
19582 1 0.38035 0.59069 0.244208
19026 1 0.394452 0.763566 0.219882
19032 1 0.394452 0.263566 0.219882
19033 1 0.408547 0.435726 0.195548
19034 1 0.436687 0.776075 0.195567
19035 1 0.422597 0.104293 0.21991
19039 1 0.408547 0.935726 0.195548
19040 1 0.436687 0.276075 0.195567
19041 1 0.422597 0.604293 0.21991
19585 1 0.4085 0.431723 0.244241
19586 1 0.43665 0.773294 0.244271
19591 1 0.4085 0.931723 0.244241
19592 1 0.43665 0.273294 0.244271
19036 1 0.464824 0.116635 0.195579
19037 1 0.450741 0.445373 0.219931
19038 1 0.478882 0.786664 0.219942
19042 1 0.464824 0.616635 0.195579
19043 1 0.450741 0.945373 0.219931
19044 1 0.478882 0.286664 0.219942
19588 1 0.4648 0.115253 0.244293
19594 1 0.4648 0.615253 0.244293
19045 1 0.492958 0.457281 0.195581
19051 1 0.492958 0.957281 0.195581
19597 1 0.492947 0.457413 0.2443
19603 1 0.492947 0.957413 0.2443
19530 3 0.0566827 0.704 0.268473
19536 3 0.0566827 0.204 0.268473
20080 3 0.0426091 0.0328874 0.292845
20086 3 0.0426091 0.532887 0.292845
19539 3 0.0848298 0.0394613 0.268473
19541 1 0.113158 0.375347 0.268576
19545 3 0.0848298 0.539461 0.268473
19547 1 0.113158 0.875347 0.268576
20089 3 0.0707563 0.368104 0.292845
20090 1 0.0992304 0.70343 0.292911
20092 1 0.127233 0.0393425 0.292906
20095 3 0.0707563 0.868104 0.292845
20096 1 0.0992304 0.20343 0.292911
20098 1 0.127233 0.539342 0.292906
19542 1 0.141272 0.711793 0.268598
19548 1 0.141272 0.211793 0.268598
19551 1 0.169391 0.0482885 0.268578
19557 1 0.169391 0.548288 0.268578
20101 1 0.15533 0.375814 0.292918
20102 1 0.183423 0.712448 0.292896
20107 1 0.15533 0.875814 0.292918
20108 1 0.183423 0.212448 0.292896
19553 1 0.197488 0.385051 0.268534
19554 1 0.225591 0.722227 0.268506
19559 1 0.197488 0.885051 0.268534
19560 1 0.225591 0.222227 0.268506
19563 1 0.253705 0.0599363 0.268492
19569 1 0.253705 0.559936 0.268492
20119 1 0.239623 0.886719 0.292844
20104 1 0.211521 0.0493558 0.292868
20110 1 0.211521 0.549356 0.292868
20113 1 0.239623 0.386719 0.292844
19565 1 0.281827 0.398188 0.268485
19566 1 0.309957 0.737077 0.268488
19571 1 0.281827 0.898188 0.268485
19572 1 0.309957 0.237077 0.268488
20122 1 0.295854 0.563198 0.292822
20120 1 0.267734 0.224635 0.292829
20114 1 0.267734 0.724635 0.292829
20116 1 0.295854 0.0631976 0.292822
20134 1 0.380278 0.583919 0.292872
20132 1 0.352126 0.242726 0.292842
20131 1 0.323985 0.902521 0.292825
20128 1 0.380278 0.0839191 0.292872
19575 1 0.338095 0.0766808 0.268501
20126 1 0.352126 0.742726 0.292842
19577 1 0.366242 0.41707 0.268526
20125 1 0.323985 0.402521 0.292825
19581 1 0.338095 0.576681 0.268501
19583 1 0.366242 0.91707 0.268526
20144 1 0.436605 0.269315 0.292954
20143 1 0.408439 0.926141 0.292912
20138 1 0.436605 0.769314 0.292954
20137 1 0.408439 0.42614 0.292912
19578 1 0.394394 0.758279 0.26856
19584 1 0.394394 0.258279 0.26856
19587 1 0.422551 0.100259 0.268598
19593 1 0.422551 0.600259 0.268598
20146 1 0.464774 0.613237 0.292986
20140 1 0.464774 0.113237 0.292986
19589 1 0.450709 0.442873 0.268631
19590 1 0.478866 0.785905 0.26865
19595 1 0.450709 0.942872 0.268631
19596 1 0.478866 0.285905 0.26865
20149 1 0.492943 0.457573 0.292999
20155 1 0.492943 0.957574 0.292999
20640 3 0.0566827 0.189031 0.365958
20639 3 0.0285356 0.854436 0.365958
20638 3 0.0426091 0.525562 0.341587
20634 3 0.0566827 0.689031 0.365958
20633 3 0.0285356 0.354435 0.365958
20632 3 0.0426091 0.0255627 0.341587
20082 3 0.0566827 0.696794 0.317216
20088 3 0.0566827 0.196795 0.317216
20651 1 0.11309 0.859102 0.365943
20650 1 0.127193 0.531113 0.341612
20649 1 0.0849827 0.523956 0.365917
20648 1 0.0991144 0.195534 0.341594
20647 1 0.0708358 0.860921 0.341496
20645 1 0.11309 0.359102 0.365943
20644 1 0.127193 0.0311133 0.341612
20643 1 0.0849827 0.0239563 0.365917
20642 1 0.0991144 0.695534 0.341594
20641 1 0.0708359 0.360921 0.341496
20091 1 0.0851408 0.0313717 0.317251
20093 1 0.113205 0.367243 0.317258
20097 1 0.0851408 0.531372 0.317251
20099 1 0.113205 0.867243 0.317258
20661 1 0.169304 0.530425 0.365956
20660 1 0.183376 0.20337 0.341595
20659 1 0.155282 0.867069 0.341609
20655 1 0.169304 0.0304249 0.365956
20654 1 0.183376 0.70337 0.341595
20653 1 0.155282 0.367069 0.341609
20652 1 0.141204 0.194575 0.36596
20646 1 0.141204 0.694575 0.36596
20094 1 0.141274 0.703327 0.31726
20100 1 0.141274 0.203327 0.31726
20103 1 0.169355 0.0397104 0.317253
20109 1 0.169355 0.53971 0.317253
20673 1 0.253585 0.540232 0.365886
20671 1 0.239565 0.87705 0.341545
20667 1 0.253585 0.0402322 0.365886
20665 1 0.239565 0.37705 0.341545
20664 1 0.225492 0.203171 0.365914
20663 1 0.197399 0.866602 0.365939
20662 1 0.211469 0.539994 0.341571
20658 1 0.225492 0.703171 0.365914
20657 1 0.197399 0.366602 0.365939
20656 1 0.211469 0.039994 0.341571
20121 1 0.253646 0.550892 0.317182
20105 1 0.197449 0.376375 0.317232
20106 1 0.225545 0.713384 0.317205
20111 1 0.197449 0.876375 0.317232
20112 1 0.225545 0.213384 0.317205
20115 1 0.253646 0.0508918 0.317182
20676 1 0.309785 0.216449 0.365835
20675 1 0.281682 0.877929 0.365858
20674 1 0.295772 0.553017 0.3415
20672 1 0.267665 0.214675 0.34152
20670 1 0.309785 0.716449 0.365835
20669 1 0.281682 0.377929 0.365858
20668 1 0.295772 0.053017 0.3415
20666 1 0.267665 0.714675 0.34152
20124 1 0.309875 0.227922 0.317157
20123 1 0.281756 0.889029 0.317165
20118 1 0.309875 0.727922 0.317157
20117 1 0.281756 0.389029 0.317165
20687 1 0.366034 0.89703 0.36582
20686 1 0.380175 0.574412 0.341513
20685 1 0.3379 0.556042 0.365821
20684 1 0.352024 0.232635 0.341492
20683 1 0.32389 0.892259 0.34149
20681 1 0.366034 0.39703 0.36582
20680 1 0.380175 0.0744119 0.341513
20679 1 0.3379 0.0560427 0.365821
20678 1 0.352024 0.732635 0.341492
20677 1 0.32389 0.392259 0.34149
20135 1 0.366153 0.908665 0.31718
20133 1 0.338007 0.56774 0.317161
20129 1 0.366153 0.408665 0.31718
20127 1 0.338007 0.0677402 0.317161
20697 1 0.422379 0.584968 0.365883
20696 1 0.436536 0.26309 0.341604
20695 1 0.408346 0.917855 0.341553
20691 1 0.422379 0.0849696 0.365883
20690 1 0.436536 0.763089 0.341604
20689 1 0.408346 0.417854 0.341553
20688 1 0.394192 0.239848 0.36584
20682 1 0.394192 0.739849 0.36584
20145 1 0.422485 0.594358 0.31726
20139 1 0.422485 0.0943582 0.31726
20136 1 0.394313 0.250849 0.317214
20130 1 0.394313 0.750849 0.317214
20700 1 0.478823 0.282475 0.365982
20699 1 0.450593 0.932659 0.36594
20698 1 0.464736 0.60993 0.34165
20694 1 0.478823 0.782477 0.365982
20693 1 0.450593 0.432661 0.36594
20692 1 0.464736 0.109929 0.34165
20148 1 0.478849 0.284692 0.317335
20147 1 0.450666 0.939083 0.317306
20142 1 0.478849 0.784692 0.317335
20141 1 0.450666 0.439084 0.317306
20707 1 0.492941 0.957734 0.341669
20701 1 0.492941 0.457732 0.341669
21742 1 0.0426589 0.510721 0.438993
21740 3 0.014462 0.175718 0.439072
21736 1 0.0426589 0.0107214 0.438993
21734 3 0.014462 0.675717 0.439072
21192 1 0.0570032 0.180379 0.414729
21191 3 0.0285356 0.846651 0.414701
21190 3 0.0426091 0.517761 0.390329
21188 3 0.014462 0.183437 0.390329
21186 1 0.0570032 0.680379 0.414729
21185 3 0.0285356 0.34665 0.414701
21184 3 0.0426091 0.0177616 0.390329
21182 3 0.014462 0.683437 0.390329
21754 1 0.127167 0.512321 0.439057
21752 1 0.0990859 0.177906 0.439064
21751 1 0.0710008 0.843821 0.439059
21748 1 0.127167 0.0123208 0.439057
21746 1 0.0990859 0.677906 0.439064
21745 1 0.0710008 0.343821 0.439059
21203 1 0.113132 0.849777 0.414681
21202 1 0.127156 0.522053 0.39031
21201 1 0.0850741 0.515116 0.414696
21200 1 0.0990731 0.186884 0.390289
21199 1 0.0710923 0.852183 0.390347
21197 1 0.113132 0.349777 0.414681
21196 1 0.127156 0.0220534 0.39031
21195 1 0.0850741 0.0151155 0.414696
21194 1 0.0990731 0.686884 0.390289
21193 1 0.0710923 0.352183 0.390347
21764 1 0.183348 0.182034 0.439037
21763 1 0.155257 0.847063 0.43905
21758 1 0.183348 0.682034 0.439037
21757 1 0.155257 0.347063 0.43905
21213 1 0.169293 0.520044 0.414676
21212 1 0.183339 0.193262 0.390307
21211 1 0.155246 0.857531 0.390316
21207 1 0.169293 0.0200442 0.414676
21206 1 0.183339 0.693262 0.390307
21205 1 0.155246 0.357531 0.390316
21204 1 0.141204 0.184771 0.414681
21198 1 0.141204 0.684771 0.414681
21775 1 0.239524 0.852783 0.438992
21769 1 0.239524 0.352783 0.438992
21766 1 0.211437 0.517256 0.439017
21760 1 0.211437 0.0172561 0.439017
21225 1 0.253557 0.527691 0.414608
21223 1 0.23952 0.865783 0.390259
21219 1 0.253557 0.0276915 0.414608
21217 1 0.23952 0.365783 0.390259
21216 1 0.225471 0.191423 0.414637
21215 1 0.197383 0.855572 0.414661
21214 1 0.211431 0.529315 0.390286
21210 1 0.225471 0.691423 0.414637
21209 1 0.197383 0.355572 0.414661
21208 1 0.211431 0.0293153 0.390286
21778 1 0.295686 0.525194 0.438929
21776 1 0.267607 0.188712 0.438962
21772 1 0.295686 0.025193 0.438929
21770 1 0.267607 0.688712 0.438962
21228 1 0.309724 0.202105 0.414542
21227 1 0.28164 0.864519 0.414576
21226 1 0.2957 0.540485 0.390198
21224 1 0.267609 0.202781 0.390229
21222 1 0.309724 0.702106 0.414542
21221 1 0.28164 0.364519 0.414576
21220 1 0.2957 0.040485 0.390198
21218 1 0.267609 0.702781 0.390229
21790 1 0.379913 0.540955 0.438814
21788 1 0.351835 0.200852 0.438855
21787 1 0.323761 0.862457 0.438893
21784 1 0.379913 0.040955 0.438814
21782 1 0.351835 0.70085 0.438855
21781 1 0.323761 0.362457 0.438893
21239 1 0.36591 0.880853 0.414479
21238 1 0.380037 0.560676 0.390142
21237 1 0.337812 0.540739 0.414509
21236 1 0.351906 0.219029 0.390149
21235 1 0.323797 0.879125 0.39017
21233 1 0.36591 0.380855 0.414479
21232 1 0.380037 0.0606742 0.390142
21231 1 0.337812 0.0407386 0.414509
21230 1 0.351906 0.719029 0.390149
21229 1 0.323797 0.379125 0.39017
21800 1 0.436158 0.23162 0.438727
21799 1 0.40801 0.883759 0.438772
21794 1 0.436158 0.731618 0.438727
21793 1 0.40801 0.383754 0.438772
21249 1 0.422194 0.568883 0.414456
21248 1 0.43641 0.252292 0.390201
21247 1 0.408201 0.904774 0.390156
21243 1 0.422194 0.0688864 0.414456
21242 1 0.43641 0.752289 0.390201
21241 1 0.408201 0.404773 0.390156
21240 1 0.39403 0.223154 0.414458
21234 1 0.39403 0.723155 0.414458
21802 1 0.464469 0.589374 0.438766
21796 1 0.464469 0.089368 0.438766
21252 1 0.478766 0.277732 0.414568
21251 1 0.450438 0.920132 0.414499
21250 1 0.464665 0.603734 0.390264
21246 1 0.478766 0.777737 0.414568
21245 1 0.450437 0.420135 0.414499
21244 1 0.464665 0.103731 0.390264
21811 1 0.49294 0.957992 0.438854
21805 1 0.492941 0.457987 0.438854
21259 1 0.49294 0.957863 0.390293
21253 1 0.49294 0.45786 0.390293
21744 1 0.057004 0.172382 0.463408
21743 3 0.0285356 0.838601 0.463443
21741 3 0.00038843 0.504973 0.463443
21738 1 0.057004 0.672382 0.463408
21737 3 0.0285356 0.338601 0.463443
21735 3 0.00038843 0.004974 0.463443
22286 3 0.014462 0.667824 0.487814
22288 1 0.0429259 0.00100123 0.487811
22292 3 0.014462 0.167824 0.487814
22294 1 0.0429259 0.501001 0.487811
21755 1 0.113129 0.840144 0.463434
21753 1 0.0850372 0.506135 0.463428
21749 1 0.113129 0.340144 0.463434
21747 1 0.0850372 0.00613502 0.463428
22297 1 0.0710043 0.334597 0.487815
22298 1 0.0990957 0.66823 0.487811
22300 1 0.127188 0.00202521 0.487802
22303 1 0.0710043 0.834597 0.487815
22304 1 0.0990957 0.16823 0.487811
22306 1 0.127188 0.502025 0.487802
21765 1 0.169318 0.508809 0.463414
21759 1 0.169318 0.00880866 0.463414
21756 1 0.141222 0.174389 0.463426
21750 1 0.141222 0.674389 0.463426
22309 1 0.155292 0.33595 0.48779
22310 1 0.183394 0.669959 0.487775
22315 1 0.155292 0.83595 0.48779
22316 1 0.183394 0.169959 0.487775
21777 1 0.253594 0.513231 0.463351
21771 1 0.253594 0.0132314 0.463351
21768 1 0.225506 0.178194 0.463376
21767 1 0.197414 0.843404 0.463397
21762 1 0.225506 0.678194 0.463376
21761 1 0.197414 0.343404 0.463397
22312 1 0.211494 0.00405482 0.487757
22318 1 0.211494 0.504055 0.487757
22321 1 0.239591 0.338253 0.487736
22327 1 0.239591 0.838253 0.487736
21780 1 0.309752 0.184465 0.463291
21779 1 0.281676 0.848604 0.463322
21774 1 0.309752 0.684465 0.463291
21773 1 0.281676 0.348605 0.463322
22322 1 0.267683 0.67258 0.487713
22324 1 0.29577 0.0070912 0.487689
22328 1 0.267683 0.17258 0.487713
22330 1 0.29577 0.507091 0.487689
21791 1 0.365878 0.858763 0.463215
21789 1 0.33782 0.521045 0.463256
21785 1 0.365878 0.358763 0.463215
21783 1 0.33782 0.0210463 0.463256
22333 1 0.323849 0.341893 0.487664
22334 1 0.351914 0.677168 0.487637
22336 1 0.379958 0.0132322 0.487604
22339 1 0.323849 0.841894 0.487664
22340 1 0.351914 0.177167 0.487637
22342 1 0.379958 0.513236 0.487604
21801 1 0.42197 0.541132 0.463092
21795 1 0.42197 0.0411331 0.463092
21792 1 0.393926 0.198336 0.463164
21786 1 0.393926 0.69834 0.463164
22345 1 0.407962 0.350667 0.48756
22346 1 0.435925 0.690739 0.487495
22351 1 0.407961 0.850666 0.48756
22352 1 0.435925 0.190745 0.487495
21804 1 0.478569 0.262367 0.463047
21803 1 0.450083 0.891705 0.462973
21798 1 0.478569 0.762371 0.463047
21797 1 0.450083 0.391711 0.462973
22348 1 0.463976 0.0412752 0.48734
22354 1 0.463976 0.541276 0.48734
22357 1 0.492943 0.458166 0.48739
22363 1 0.492942 0.958168 0.48739
22287 3 0.00038843 0.997271 0.512186
22289 3 0.0285356 0.330442 0.512186
22290 1 0.0570118 0.663579 0.51222
22293 3 0.00038843 0.49727 0.512186
22295 3 0.0285356 0.830442 0.512186
22296 1 0.0570118 0.163579 0.51222
22838 3 0.014462 0.659907 0.536557
22840 1 0.0426734 0.993531 0.536631
22841 3 0.0285356 0.322343 0.560928
22842 1 0.0570262 0.65427 0.560913
22844 3 0.014462 0.159908 0.536557
22846 1 0.0426734 0.493531 0.536631
22847 3 0.0285356 0.822343 0.560928
22848 1 0.0570262 0.15427 0.560913
22299 1 0.0850542 0.996675 0.5122
22301 1 0.113158 0.330033 0.512179
22305 1 0.0850542 0.496675 0.5122
22307 1 0.113158 0.830033 0.512179
22849 1 0.0710257 0.325673 0.536576
22850 1 0.0991301 0.658471 0.536557
22851 1 0.0851157 0.987159 0.560942
22852 1 0.127238 0.991479 0.53654
22853 1 0.113217 0.319904 0.560918
22855 1 0.0710257 0.825673 0.536576
22856 1 0.0991301 0.158471 0.536557
22857 1 0.0851157 0.487159 0.560942
22858 1 0.127238 0.491479 0.53654
22859 1 0.113217 0.819904 0.560918
22302 1 0.141265 0.663501 0.512165
22308 1 0.141265 0.163501 0.512165
22311 1 0.169374 0.996986 0.51215
22317 1 0.169374 0.496986 0.51215
22854 1 0.141324 0.652578 0.560898
22860 1 0.141324 0.152578 0.560898
22861 1 0.155352 0.324523 0.536524
22862 1 0.183466 0.657484 0.536508
22863 1 0.169443 0.985127 0.560881
22867 1 0.155352 0.824523 0.536524
22868 1 0.183466 0.157484 0.536508
22869 1 0.169443 0.485127 0.560881
22313 1 0.197483 0.330465 0.512134
22314 1 0.225589 0.66392 0.512117
22319 1 0.197483 0.830465 0.512134
22320 1 0.225589 0.16392 0.512117
22323 1 0.253693 0.997332 0.512099
22329 1 0.253693 0.497332 0.512099
22864 1 0.211581 0.990319 0.536493
22865 1 0.197562 0.317475 0.560866
22866 1 0.225683 0.649558 0.560852
22870 1 0.211581 0.490319 0.536493
22871 1 0.197562 0.817475 0.560866
22872 1 0.225683 0.149558 0.560852
22873 1 0.239695 0.322982 0.536478
22875 1 0.253805 0.98128 0.56084
22879 1 0.239695 0.822982 0.536478
22881 1 0.253805 0.48128 0.56084
22325 1 0.281794 0.330665 0.512081
22326 1 0.30989 0.663905 0.512064
22331 1 0.281794 0.830665 0.512081
22332 1 0.30989 0.163904 0.512064
22874 1 0.267808 0.655388 0.536464
22876 1 0.29592 0.98742 0.536453
22877 1 0.281927 0.312483 0.560833
22878 1 0.310049 0.642956 0.560832
22880 1 0.267808 0.155388 0.536464
22882 1 0.29592 0.48742 0.536453
22883 1 0.281927 0.812483 0.560832
22884 1 0.310049 0.142956 0.560832
22335 1 0.33798 0.997013 0.512051
22337 1 0.366058 0.329878 0.512042
22341 1 0.33798 0.497014 0.512051
22343 1 0.366058 0.829875 0.512041
22885 1 0.32403 0.318925 0.536448
22886 1 0.352137 0.649562 0.536453
22887 1 0.33817 0.972343 0.560844
22888 1 0.380241 0.978679 0.536476
22889 1 0.366288 0.300003 0.560876
22891 1 0.32403 0.818924 0.536448
22892 1 0.352137 0.149564 0.536453
22893 1 0.33817 0.472342 0.560844
22894 1 0.380241 0.478677 0.536475
22895 1 0.366288 0.800005 0.560876
22338 1 0.394118 0.662209 0.512039
22344 1 0.394118 0.162211 0.512039
22347 1 0.422153 0.993158 0.512055
22353 1 0.422153 0.493154 0.512055
22890 1 0.394403 0.62483 0.560944
22896 1 0.394403 0.124827 0.560944
22897 1 0.408343 0.304879 0.536533
22898 1 0.436465 0.62487 0.536662
22899 1 0.422517 0.944811 0.561078
22903 1 0.408343 0.804883 0.536534
22904 1 0.436465 0.124866 0.536662
22905 1 0.422517 0.444814 0.561078
22349 1 0.450235 0.32035 0.512122
22350 1 0.478507 0.624933 0.512392
22355 1 0.450235 0.820353 0.512122
22356 1 0.478507 0.124931 0.512392
22900 1 0.464606 0.929424 0.537008
22901 1 0.450625 0.25658 0.561357
22902 1 0.478784 0.559031 0.561711
22906 1 0.464606 0.429428 0.537008
22907 1 0.450625 0.756577 0.561357
22908 1 0.478784 0.0590335 0.561711
22909 1 0.492943 0.208541 0.5375
22915 1 0.492943 0.708538 0.5375
23390 3 0.014462 0.652122 0.585299
23392 3 0.0426091 0.984589 0.585299
23393 3 0.0285356 0.314466 0.609671
23394 1 0.0567518 0.647231 0.609731
23396 3 0.014462 0.152123 0.585299
23398 3 0.0426091 0.484589 0.585299
23399 3 0.0285356 0.814467 0.609671
23400 1 0.0567518 0.147231 0.609731
23401 1 0.0711016 0.316646 0.585326
23402 1 0.0991666 0.648878 0.5853
23403 1 0.0851201 0.978474 0.609663
23404 1 0.127289 0.981192 0.585272
23405 1 0.113246 0.310369 0.609639
23407 1 0.0711016 0.816646 0.585326
23408 1 0.0991666 0.148878 0.5853
23409 1 0.0851201 0.478474 0.609663
23410 1 0.127289 0.481192 0.585272
23411 1 0.113246 0.810369 0.609639
23406 1 0.141365 0.642221 0.609625
23412 1 0.141365 0.142221 0.609625
23413 1 0.155409 0.313389 0.585253
23414 1 0.183532 0.645357 0.585238
23415 1 0.169489 0.97391 0.60961
23419 1 0.155409 0.813389 0.585253
23420 1 0.183532 0.145357 0.585238
23421 1 0.169489 0.47391 0.60961
23416 1 0.211657 0.977019 0.585224
23417 1 0.197615 0.305283 0.609595
23418 1 0.225745 0.636227 0.609583
23422 1 0.211657 0.47702 0.585224
23423 1 0.197615 0.805283 0.609595
23424 1 0.225745 0.136227 0.609583
23425 1 0.239784 0.308266 0.585213
23427 1 0.253876 0.966593 0.609577
23431 1 0.239784 0.808266 0.585213
23433 1 0.253876 0.466592 0.609577
23426 1 0.267911 0.638945 0.585206
23428 1 0.296039 0.968832 0.585208
23429 1 0.282006 0.296192 0.609579
23430 1 0.310134 0.624765 0.609594
23432 1 0.267911 0.138945 0.585206
23434 1 0.296039 0.468831 0.585208
23435 1 0.282006 0.796192 0.609579
23436 1 0.310134 0.124765 0.609594
23437 1 0.324165 0.297615 0.585223
23438 1 0.352288 0.624805 0.585257
23439 1 0.338258 0.951955 0.609627
23440 1 0.380406 0.94963 0.585324
23441 1 0.366375 0.27727 0.609688
23443 1 0.324165 0.797616 0.585223
23444 1 0.352288 0.124803 0.585257
23445 1 0.338258 0.451956 0.609628
23446 1 0.380406 0.449632 0.585324
23447 1 0.366375 0.777269 0.609688
23442 1 0.394486 0.600083 0.609788
23448 1 0.394486 0.100084 0.609788
23449 1 0.408517 0.270985 0.585441
23450 1 0.436622 0.587489 0.585641
23451 1 0.422591 0.919804 0.609937
23455 1 0.408517 0.770983 0.585441
23456 1 0.436622 0.0874929 0.585641
23457 1 0.422591 0.419802 0.609937
23452 1 0.464747 0.899075 0.585892
23453 1 0.450708 0.236481 0.610118
23454 1 0.47886 0.551417 0.610242
23458 1 0.464747 0.399071 0.585892
23459 1 0.450708 0.736483 0.610118
23460 1 0.47886 0.0514164 0.610242
23461 1 0.492944 0.208649 0.585995
23467 1 0.492945 0.708653 0.585995
23944 3 0.0426091 0.976669 0.634042
23945 3 0.0285356 0.306948 0.658413
23946 3 0.0566827 0.638749 0.658413
23950 3 0.0426091 0.476668 0.634042
23951 3 0.0285356 0.806949 0.658413
23952 3 0.0566827 0.13875 0.658413
24496 3 0.0426091 0.969196 0.682784
24502 3 0.0426091 0.469195 0.682784
23953 1 0.0711028 0.307712 0.633994
23954 1 0.0992143 0.639839 0.634003
23955 1 0.0851941 0.97002 0.658352
23956 1 0.127319 0.971575 0.633997
23957 1 0.113232 0.301471 0.658375
23959 1 0.0711028 0.807712 0.633994
23960 1 0.0992143 0.139839 0.634003
23961 1 0.0851941 0.47002 0.658352
23962 1 0.127319 0.471575 0.633997
23963 1 0.113232 0.801471 0.658375
24505 3 0.0707563 0.300736 0.682784
24506 1 0.0991144 0.632104 0.682719
24508 1 0.127233 0.963165 0.682731
24511 3 0.0707563 0.800737 0.682784
24512 1 0.0991144 0.132104 0.682719
24514 1 0.127233 0.463165 0.682731
23958 1 0.141352 0.632815 0.658358
23964 1 0.141352 0.132815 0.658358
23965 1 0.155429 0.303065 0.633984
23966 1 0.183557 0.634261 0.633967
23967 1 0.16948 0.963878 0.658339
23971 1 0.155429 0.803065 0.633984
23972 1 0.183557 0.134261 0.633967
23973 1 0.16948 0.463878 0.658339
24517 1 0.155384 0.294058 0.682706
24518 1 0.183531 0.624663 0.682685
24523 1 0.155384 0.794058 0.682706
24524 1 0.183531 0.124663 0.682685
23968 1 0.211689 0.965027 0.633953
23969 1 0.197618 0.294545 0.65832
23970 1 0.225756 0.624686 0.65831
23974 1 0.211689 0.465027 0.633953
23975 1 0.197618 0.794545 0.65832
23976 1 0.225756 0.124686 0.65831
23977 1 0.239823 0.29523 0.633945
23979 1 0.253892 0.954166 0.65831
23983 1 0.239823 0.79523 0.633945
23985 1 0.253892 0.454166 0.65831
24520 1 0.211678 0.954806 0.682671
24526 1 0.211678 0.454806 0.682671
24529 1 0.239819 0.284342 0.68267
24535 1 0.239819 0.784342 0.68267
23978 1 0.267955 0.624716 0.633946
23980 1 0.296084 0.953291 0.63396
23981 1 0.282022 0.282837 0.658323
23982 1 0.310147 0.610532 0.65835
23984 1 0.267955 0.124716 0.633946
23986 1 0.296084 0.453291 0.63396
23987 1 0.282022 0.782836 0.658323
23988 1 0.310147 0.110532 0.65835
24530 1 0.267952 0.61316 0.682682
24532 1 0.296078 0.941153 0.682707
24536 1 0.267952 0.11316 0.682682
24538 1 0.296078 0.441153 0.682707
23989 1 0.324208 0.2807 0.633991
23990 1 0.352326 0.606621 0.634045
23991 1 0.338265 0.937048 0.658397
23992 1 0.380437 0.930701 0.634129
23993 1 0.366378 0.262164 0.658468
23995 1 0.324208 0.7807 0.633991
23996 1 0.352326 0.106622 0.634045
23997 1 0.338265 0.437048 0.658397
23998 1 0.380437 0.4307 0.634129
23999 1 0.366378 0.762164 0.658468
24541 1 0.324198 0.268189 0.682747
24542 1 0.352314 0.59414 0.682806
24544 1 0.380427 0.918919 0.682883
24547 1 0.324198 0.76819 0.682747
24548 1 0.352314 0.0941395 0.682806
24550 1 0.380427 0.418919 0.682883
23994 1 0.394488 0.585731 0.658563
24000 1 0.394488 0.0857302 0.658563
24001 1 0.408544 0.252651 0.634246