ITEM: TIMESTEP
45
ITEM: NUMBER OF ATOMS
2354
ITEM: BOX BOUNDS ss pp ss
-4.1846240876000003e+01 4.0972067143000004e+01
-4.1208122699999999e-01 4.5329187729999996e+00
-4.1417503953000001e+01 4.1417481599000006e+01
ITEM: ATOMS id type xs ys zs
17356 3 0.295933 0.0904149 0.0491324
17362 3 0.295933 0.590414 0.0491324
16815 3 0.338154 0.0980961 0.0247612
16817 3 0.366301 0.435698 0.0247612
16821 3 0.338154 0.598096 0.0247612
16823 3 0.366301 0.935698 0.0247612
17365 3 0.32408 0.42793 0.0491324
17366 3 0.352228 0.76563 0.0491324
17368 3 0.380375 0.103499 0.0491324
17371 3 0.32408 0.92793 0.0491324
17372 3 0.352228 0.26563 0.0491324
17374 3 0.380375 0.603498 0.0491324
16818 3 0.394448 0.773438 0.0247612
16824 3 0.394448 0.273439 0.0247612
16826 3 0.436669 0.780809 0.00038994
16827 3 0.422595 0.111296 0.0247612
16832 3 0.436669 0.28081 0.00038994
16833 3 0.422595 0.611295 0.0247612
17377 1 0.408647 0.441689 0.0491997
17378 1 0.436808 0.780981 0.0494672
17383 1 0.408647 0.941689 0.0491997
17384 1 0.436808 0.280981 0.0494672
16828 3 0.464816 0.118571 0.00038994
16829 3 0.450743 0.449243 0.0247612
16830 3 0.47889 0.787254 0.0247612
16834 3 0.464816 0.618571 0.00038994
16835 3 0.450743 0.949244 0.0247612
16836 3 0.47889 0.287254 0.0247612
17380 1 0.464939 0.118595 0.0494874
17386 1 0.464939 0.618595 0.0494874
16837 3 0.492963 0.456373 0.00038994
16843 3 0.492963 0.956373 0.00038994
17389 1 0.492992 0.456435 0.04936
17395 1 0.492992 0.956435 0.04936
17895 3 0.169271 0.0671577 0.122246
17901 3 0.169271 0.567157 0.122246
17355 3 0.253713 0.0825995 0.0735036
17361 3 0.253713 0.582599 0.0735036
17896 3 0.211492 0.0747982 0.0978748
17897 3 0.197418 0.403926 0.122246
17898 3 0.225565 0.740954 0.122246
17902 3 0.211492 0.574798 0.0978748
17903 3 0.197418 0.903926 0.122246
17904 3 0.225565 0.240955 0.122246
17905 3 0.239639 0.411885 0.0978748
17907 1 0.253854 0.0792588 0.122477
17911 3 0.239639 0.911885 0.0978748
17913 1 0.253854 0.579259 0.122477
17357 3 0.28186 0.41994 0.0735036
17358 3 0.310007 0.757505 0.0735036
17363 3 0.28186 0.919941 0.0735036
17364 3 0.310007 0.257506 0.0735036
17906 3 0.267786 0.749222 0.0978748
17908 1 0.296065 0.0879073 0.0981209
17909 1 0.282047 0.41703 0.122568
17910 1 0.310146 0.754944 0.122514
17912 3 0.267786 0.249222 0.0978748
17914 1 0.296065 0.587907 0.0981209
17915 1 0.282047 0.91703 0.122568
17916 1 0.310146 0.254944 0.122514
17367 1 0.338237 0.0961851 0.073811
17369 1 0.366436 0.43399 0.0738401
17373 1 0.338237 0.596185 0.073811
17375 1 0.366436 0.93399 0.0738401
17917 1 0.324246 0.425799 0.0982345
17918 1 0.352359 0.76385 0.0981498
17919 1 0.338293 0.0932783 0.122519
17920 1 0.380505 0.10226 0.098083
17921 1 0.366428 0.431705 0.122482
17923 1 0.324246 0.925799 0.0982345
17924 1 0.352359 0.26385 0.0981498
17925 1 0.338293 0.593278 0.122519
17926 1 0.380505 0.60226 0.098083
17927 1 0.366428 0.931705 0.122482
17370 1 0.394561 0.772088 0.0736705
17376 1 0.394561 0.272088 0.0736705
17379 1 0.422713 0.110853 0.0737723
17385 1 0.422713 0.610853 0.0737723
17922 1 0.394548 0.770351 0.122459
17928 1 0.394548 0.270351 0.122459
17929 1 0.408611 0.440639 0.098072
17930 1 0.436745 0.779485 0.09814
17931 1 0.422665 0.109179 0.122475
17935 1 0.408611 0.940639 0.098072
17936 1 0.436745 0.279485 0.09814
17937 1 0.422665 0.609179 0.122475
17381 1 0.450846 0.449445 0.073812
17382 1 0.478958 0.787689 0.0737664
17387 1 0.450846 0.949445 0.073812
17388 1 0.478958 0.287689 0.0737664
17932 1 0.464882 0.118261 0.0981589
17933 1 0.450798 0.448282 0.122507
17934 1 0.478926 0.787356 0.122515
17938 1 0.464882 0.618261 0.0981589
17939 1 0.450798 0.948282 0.122507
17940 1 0.478926 0.287356 0.122515
17941 1 0.492993 0.456828 0.0981388
17947 1 0.492993 0.956828 0.0981388
18438 3 0.141124 0.725144 0.170988
18444 3 0.141124 0.225144 0.170988
18445 3 0.155198 0.396215 0.146617
18446 3 0.183345 0.732878 0.146617
18447 3 0.169271 0.0616716 0.170988
18451 3 0.155198 0.896215 0.146617
18452 3 0.183345 0.232879 0.146617
18453 3 0.169271 0.561671 0.170988
18448 1 0.211708 0.0704434 0.146828
18449 1 0.197645 0.398803 0.171247
18450 1 0.225726 0.736298 0.171203
18454 1 0.211708 0.570443 0.146828
18455 1 0.197645 0.898803 0.171247
18456 1 0.225726 0.236298 0.171203
18457 1 0.23986 0.40796 0.146921
18459 1 0.253861 0.0741342 0.171211
18463 1 0.23986 0.90796 0.146921
18465 1 0.253861 0.574134 0.171211
18458 1 0.267943 0.745677 0.146856
18460 1 0.296077 0.0837952 0.146866
18461 1 0.281987 0.412073 0.1712
18462 1 0.310121 0.750439 0.171197
18464 1 0.267943 0.245677 0.146856
18466 1 0.296077 0.583795 0.146866
18467 1 0.281987 0.912073 0.1712
18468 1 0.310121 0.250439 0.171197
18469 1 0.324209 0.42204 0.146857
18470 1 0.352347 0.760689 0.146846
18471 1 0.338257 0.0891006 0.171193
18472 1 0.380475 0.0995054 0.146831
18473 1 0.366393 0.428115 0.171193
18475 1 0.324209 0.92204 0.146857
18476 1 0.352347 0.260689 0.146846
18477 1 0.338257 0.589101 0.171193
18478 1 0.380475 0.599505 0.146831
18479 1 0.366393 0.928115 0.171193
18474 1 0.394524 0.767426 0.171199
18480 1 0.394524 0.267426 0.171199
18481 1 0.408598 0.438553 0.146837
18482 1 0.436724 0.777864 0.146859
18483 1 0.422653 0.107024 0.171214
18487 1 0.408598 0.938553 0.146837
18488 1 0.436724 0.277864 0.146859
18489 1 0.422653 0.607024 0.171214
18484 1 0.464855 0.117356 0.146878
18485 1 0.450784 0.446877 0.171234
18486 1 0.478917 0.78688 0.171246
18490 1 0.464855 0.617356 0.146878
18491 1 0.450784 0.946877 0.171234
18492 1 0.478917 0.28688 0.171246
18493 1 0.492984 0.456853 0.146884
18499 1 0.492984 0.956853 0.146884
18987 3 0.0848298 0.0467959 0.219731
18988 3 0.127051 0.053966 0.19536
18989 3 0.112977 0.382706 0.219731
18993 3 0.0848298 0.546795 0.219731
18994 3 0.127051 0.553965 0.19536
18995 3 0.112977 0.882706 0.219731
19537 3 0.0707563 0.375694 0.244102
19538 3 0.0989034 0.711395 0.244102
19540 1 0.127279 0.0480086 0.244342
19543 3 0.0707563 0.875694 0.244102
19544 3 0.0989034 0.211395 0.244102
19546 1 0.127279 0.548009 0.244342
18990 1 0.141101 0.71813 0.219862
18996 1 0.141101 0.21813 0.219862
18997 1 0.155234 0.389031 0.195447
18998 1 0.183484 0.726773 0.195516
18999 1 0.16935 0.0551599 0.219878
19003 1 0.155234 0.889031 0.195447
19004 1 0.183484 0.226773 0.195516
19005 1 0.16935 0.55516 0.219878
19549 1 0.155363 0.383799 0.244276
19550 1 0.183435 0.720336 0.24419
19555 1 0.155363 0.883799 0.244276
19556 1 0.183435 0.220336 0.24419
19000 1 0.2116 0.0644251 0.19553
19001 1 0.197475 0.392344 0.219843
19002 1 0.225633 0.72992 0.219853
19006 1 0.2116 0.564425 0.19553
19007 1 0.197475 0.892344 0.219843
19008 1 0.225633 0.22992 0.219853
19009 1 0.239746 0.402106 0.195536
19011 1 0.253776 0.0677295 0.219856
19015 1 0.239746 0.902106 0.195536
19017 1 0.253776 0.567729 0.219856
19552 1 0.211553 0.0575054 0.244178
19558 1 0.211553 0.557505 0.244178
19561 1 0.239681 0.395092 0.244181
19567 1 0.239681 0.895092 0.244181
19010 1 0.267885 0.740101 0.195533
19012 1 0.296022 0.0783619 0.19553
19013 1 0.281919 0.405915 0.21986
19014 1 0.31006 0.744556 0.219864
19016 1 0.267885 0.240101 0.195533
19018 1 0.296022 0.578362 0.19553
19019 1 0.281919 0.905915 0.21986
19020 1 0.31006 0.244556 0.219864
19562 1 0.267817 0.733113 0.244186
19564 1 0.295955 0.0716283 0.244191
19568 1 0.267817 0.233113 0.244186
19570 1 0.295955 0.571628 0.244191
19021 1 0.324162 0.417055 0.195533
19022 1 0.352302 0.75618 0.195538
19023 1 0.338202 0.0837092 0.219873
19024 1 0.38044 0.0957112 0.195549
19025 1 0.366345 0.423376 0.219888
19027 1 0.324162 0.917055 0.195533
19028 1 0.352302 0.25618 0.195538
19029 1 0.338202 0.583709 0.219873
19030 1 0.38044 0.595711 0.195549
19031 1 0.366345 0.923376 0.219888
19573 1 0.324096 0.410711 0.2442
19574 1 0.352241 0.750407 0.244216
19576 1 0.380388 0.0907356 0.244238
19579 1 0.324096 0.910711 0.2442
19580 1 0.352241 0.250407 0.244216
19582 1 0.380388 0.590736 0.244238
19026 1 0.394487 0.763538 0.219908
19032 1 0.394487 0.263538 0.219908
19033 1 0.408575 0.435615 0.195566
19034 1 0.436711 0.775852 0.195586
19035 1 0.422629 0.104159 0.219932
19039 1 0.408575 0.935615 0.195566
19040 1 0.436711 0.275852 0.195586
19041 1 0.422629 0.604159 0.219932
19585 1 0.408537 0.431681 0.244267
19586 1 0.436686 0.773168 0.244295
19591 1 0.408537 0.931681 0.244267
19592 1 0.436686 0.273168 0.244295
19036 1 0.464847 0.116346 0.195604
19037 1 0.450771 0.445159 0.219954
19038 1 0.478914 0.7864 0.219967
19042 1 0.464847 0.616346 0.195604
19043 1 0.450771 0.945159 0.219954
19044 1 0.478914 0.2864 0.219967
19588 1 0.464836 0.115063 0.244317
19594 1 0.464836 0.615063 0.244317
19045 1 0.492984 0.456968 0.19561
19051 1 0.492984 0.956968 0.19561
19597 1 0.492987 0.457174 0.244324
19603 1 0.492987 0.957174 0.244324
19530 3 0.0566827 0.704589 0.268473
19536 3 0.0566827 0.204589 0.268473
19539 3 0.0848298 0.0400631 0.268473
19541 1 0.11338 0.375913 0.268706
19545 3 0.0848298 0.540063 0.268473
19547 1 0.11338 0.875913 0.268706
20089 3 0.0707563 0.368741 0.292845
20090 1 0.0992241 0.703808 0.292921
20092 1 0.127325 0.0401179 0.292983
20095 3 0.0707563 0.868742 0.292845
20096 1 0.0992241 0.203808 0.292921
20098 1 0.127325 0.540118 0.292983
19542 1 0.141382 0.712071 0.268644
19548 1 0.141382 0.212071 0.268644
19551 1 0.169439 0.0483598 0.26858
19557 1 0.169439 0.54836 0.26858
20101 1 0.155399 0.376301 0.292963
20102 1 0.183463 0.712701 0.292916
20107 1 0.155399 0.876301 0.292963
20108 1 0.183463 0.212701 0.292916
19553 1 0.19751 0.385067 0.268535
19554 1 0.225608 0.722299 0.268522
19559 1 0.19751 0.885067 0.268535
19560 1 0.225608 0.222299 0.268522
19563 1 0.253725 0.0600488 0.268519
19569 1 0.253725 0.560049 0.268519
20104 1 0.211546 0.0495098 0.292883
20110 1 0.211546 0.54951 0.292883
20113 1 0.239644 0.386859 0.292866
20119 1 0.239644 0.886859 0.292866
19565 1 0.281852 0.398338 0.26852
19566 1 0.309987 0.737236 0.268525
19571 1 0.281852 0.898338 0.26852
19572 1 0.309987 0.237236 0.268525
20114 1 0.267756 0.724792 0.292857
20116 1 0.295881 0.0633696 0.292854
20120 1 0.267756 0.224792 0.292857
20122 1 0.295881 0.56337 0.292854
19575 1 0.33813 0.0768234 0.268538
20134 1 0.380316 0.584007 0.292902
19577 1 0.366279 0.417171 0.26856
20132 1 0.352161 0.242865 0.292875
19581 1 0.33813 0.576823 0.268538
20131 1 0.324015 0.902689 0.292859
19583 1 0.366279 0.917171 0.26856
20128 1 0.380316 0.0840066 0.292902
20126 1 0.352161 0.742865 0.292875
20125 1 0.324015 0.402689 0.292859
20144 1 0.436646 0.269259 0.292979
20143 1 0.408478 0.926154 0.292939
20138 1 0.436646 0.769259 0.292979
20137 1 0.408478 0.426154 0.292939
19578 1 0.394432 0.758314 0.26859
19584 1 0.394432 0.258314 0.26859
19587 1 0.422589 0.100214 0.268624
19593 1 0.422589 0.600214 0.268624
20146 1 0.464817 0.613118 0.293009
20140 1 0.464817 0.113118 0.293009
19589 1 0.450748 0.442752 0.268655
19590 1 0.478908 0.785724 0.268673
19595 1 0.450748 0.942752 0.268655
19596 1 0.478908 0.285724 0.268673
20149 1 0.492989 0.457397 0.293019
20155 1 0.492989 0.957397 0.293019
20640 3 0.0566827 0.189778 0.365958
20639 3 0.0285356 0.855149 0.365958
20638 3 0.0426091 0.526256 0.341587
20634 3 0.0566827 0.689777 0.365958
20633 3 0.0285356 0.355148 0.365958
20632 3 0.0426091 0.0262564 0.341587
20082 3 0.0566827 0.697463 0.317216
20088 3 0.0566827 0.197463 0.317216
20651 1 0.113087 0.86007 0.365951
20650 1 0.12716 0.532187 0.34162
20649 1 0.0850277 0.52516 0.365995
20648 1 0.0990632 0.196926 0.341578
20647 1 0.0708464 0.862643 0.341572
20645 1 0.113087 0.36007 0.365951
20644 1 0.12716 0.0321871 0.34162
20643 1 0.0850277 0.0251597 0.365995
20642 1 0.0990632 0.696926 0.341578
20641 1 0.0708464 0.362643 0.341572
20091 1 0.0849291 0.0336406 0.317128
20093 1 0.113205 0.368362 0.317271
20097 1 0.0849291 0.533641 0.317128
20099 1 0.113205 0.868362 0.317271
20661 1 0.169307 0.531143 0.365978
20660 1 0.183388 0.203996 0.341623
20659 1 0.155282 0.867925 0.341639
20655 1 0.169307 0.0311427 0.365978
20654 1 0.183388 0.703996 0.341623
20653 1 0.155282 0.367925 0.341639
20652 1 0.141198 0.195408 0.365976
20646 1 0.141198 0.695408 0.365976
20094 1 0.141294 0.70422 0.317308
20100 1 0.141294 0.20422 0.317308
20103 1 0.169384 0.0403339 0.317289
20109 1 0.169384 0.540334 0.317289
20673 1 0.253604 0.540596 0.365907
20671 1 0.239583 0.877389 0.341568
20667 1 0.253604 0.0405959 0.365907
20665 1 0.239583 0.377389 0.341568
20664 1 0.225507 0.203625 0.365936
20663 1 0.19741 0.867184 0.365962
20662 1 0.211486 0.54044 0.341595
20658 1 0.225507 0.703625 0.365936
20657 1 0.19741 0.367184 0.365962
20656 1 0.211486 0.0404404 0.341595
20105 1 0.197474 0.376766 0.317256
20106 1 0.225566 0.713653 0.317228
20111 1 0.197474 0.876766 0.317256
20112 1 0.225566 0.213653 0.317228
20115 1 0.253667 0.051118 0.317207
20121 1 0.253667 0.551118 0.317207
20676 1 0.309811 0.216701 0.365859
20675 1 0.281704 0.878229 0.365881
20674 1 0.295797 0.553255 0.341526
20672 1 0.267686 0.214953 0.341544
20670 1 0.309812 0.716701 0.365859
20669 1 0.281704 0.378228 0.365881
20668 1 0.295797 0.0532549 0.341526
20666 1 0.267686 0.714953 0.341544
20117 1 0.281779 0.389236 0.317193
20118 1 0.309903 0.728118 0.317186
20123 1 0.281779 0.889236 0.317193
20124 1 0.309903 0.228118 0.317186
20687 1 0.366068 0.897176 0.365845
20686 1 0.380212 0.57452 0.341539
20685 1 0.337931 0.556243 0.365846
20684 1 0.352057 0.232796 0.34152
20683 1 0.32392 0.892465 0.341517
20681 1 0.366068 0.397176 0.365845
20680 1 0.380212 0.07452 0.341539
20679 1 0.337931 0.0562429 0.365846
20678 1 0.352057 0.732796 0.34152
20677 1 0.32392 0.392465 0.341517
20135 1 0.366189 0.908791 0.317209
20133 1 0.338039 0.567913 0.317191
20129 1 0.366189 0.408791 0.317209
20127 1 0.338039 0.0679128 0.317191
20697 1 0.42242 0.585022 0.365904
20696 1 0.436578 0.263094 0.341626
20695 1 0.408386 0.917907 0.341577
20691 1 0.42242 0.0850221 0.365904
20690 1 0.436578 0.763094 0.341626
20689 1 0.408386 0.417908 0.341577
20688 1 0.394229 0.239948 0.365863
20682 1 0.39423 0.739947 0.365863
20145 1 0.422526 0.59436 0.317285
20139 1 0.422526 0.0943596 0.317285
20136 1 0.394351 0.250913 0.317242
20130 1 0.394351 0.750913 0.317242
20700 1 0.478869 0.282432 0.365998
20699 1 0.450637 0.932667 0.365959
20698 1 0.464781 0.609875 0.34167
20694 1 0.478869 0.782432 0.365998
20693 1 0.450637 0.432667 0.365959
20692 1 0.464781 0.109875 0.34167
20148 1 0.478895 0.284576 0.317354
20147 1 0.450709 0.939033 0.317328
20142 1 0.478895 0.784575 0.317354
20141 1 0.450709 0.439033 0.317328
20707 1 0.492988 0.957619 0.341686
20701 1 0.492988 0.457619 0.341686
21742 3 0.0426091 0.510422 0.439072
21740 3 0.014462 0.176498 0.439072
21736 3 0.0426091 0.0104221 0.439072
21734 3 0.014462 0.676497 0.439072
21192 1 0.0569804 0.180792 0.414771
21191 3 0.0285356 0.847426 0.414701
21190 3 0.0426091 0.518525 0.390329
21188 3 0.014462 0.184165 0.390329
21186 1 0.0569804 0.680792 0.414771
21185 3 0.0285356 0.347425 0.414701
21184 3 0.0426091 0.0185253 0.390329
21182 3 0.014462 0.684164 0.390329
21754 1 0.127173 0.513054 0.439078
21752 1 0.0990824 0.178586 0.439089
21751 1 0.0709824 0.844264 0.439091
21748 1 0.127173 0.013054 0.439078
21746 1 0.0990824 0.678586 0.439089
21745 1 0.0709824 0.344264 0.439091
21203 1 0.113136 0.85058 0.414711
21202 1 0.12716 0.52288 0.390331
21201 1 0.0850635 0.515776 0.414733
21200 1 0.0990853 0.18783 0.390338
21199 1 0.0710874 0.85293 0.390387
21197 1 0.113136 0.35058 0.414711
21196 1 0.12716 0.0228795 0.390331
21195 1 0.0850635 0.0157755 0.414733
21194 1 0.0990853 0.68783 0.390338
21193 1 0.0710874 0.35293 0.390387
21764 1 0.183359 0.182664 0.439052
21763 1 0.155266 0.847751 0.439067
21758 1 0.183359 0.682664 0.439052
21757 1 0.155266 0.347751 0.439067
21213 1 0.169301 0.520705 0.414693
21212 1 0.183347 0.1939 0.390326
21211 1 0.155249 0.858253 0.390333
21207 1 0.169301 0.0207046 0.414693
21206 1 0.183347 0.6939 0.390326
21205 1 0.155249 0.358253 0.390333
21204 1 0.14121 0.185508 0.414701
21198 1 0.14121 0.685508 0.414701
21775 1 0.239541 0.853273 0.439007
21769 1 0.239541 0.353273 0.439007
21766 1 0.211451 0.517821 0.439032
21760 1 0.211451 0.0178209 0.439032
21225 1 0.253576 0.528125 0.414626
21223 1 0.239537 0.866232 0.390278
21219 1 0.253576 0.0281252 0.414626
21217 1 0.239537 0.366232 0.390278
21216 1 0.225486 0.191936 0.414654
21215 1 0.197395 0.856161 0.414677
21214 1 0.211443 0.529859 0.390306
21210 1 0.225486 0.691936 0.414654
21209 1 0.197395 0.356161 0.414677
21208 1 0.211443 0.0298594 0.390306
21778 1 0.29571 0.525539 0.438947
21776 1 0.267628 0.189126 0.438978
21772 1 0.29571 0.0255395 0.438947
21770 1 0.267628 0.689126 0.438978
21228 1 0.30975 0.202401 0.414562
21227 1 0.281663 0.864882 0.414594
21226 1 0.295724 0.54079 0.390219
21224 1 0.267629 0.203154 0.390249
21222 1 0.30975 0.7024 0.414562
21221 1 0.281663 0.364882 0.414594
21220 1 0.295724 0.04079 0.390219
21218 1 0.267629 0.703154 0.390249
21790 1 0.379946 0.541163 0.438832
21788 1 0.351865 0.201092 0.438874
21787 1 0.323788 0.862738 0.438912
21784 1 0.379946 0.0411628 0.438832
21782 1 0.351865 0.701093 0.438874
21781 1 0.323788 0.362738 0.438912
21239 1 0.365942 0.881048 0.414499
21238 1 0.380072 0.560819 0.390164
21237 1 0.337841 0.540976 0.414529
21236 1 0.351938 0.219217 0.390172
21235 1 0.323825 0.87937 0.390193
21233 1 0.365942 0.381048 0.414499
21232 1 0.380072 0.0608193 0.390164
21231 1 0.337841 0.0409755 0.414529
21230 1 0.351938 0.719217 0.390172
21229 1 0.323825 0.379371 0.390193
21800 1 0.436196 0.231763 0.438742
21799 1 0.408046 0.883931 0.438789
21794 1 0.436196 0.731764 0.438742
21793 1 0.408046 0.383933 0.438789
21249 1 0.422233 0.569006 0.414474
21248 1 0.436451 0.252354 0.39022
21247 1 0.408239 0.904879 0.390177
21243 1 0.422233 0.0690048 0.414474
21242 1 0.436451 0.752355 0.39022
21241 1 0.408239 0.404879 0.390177
21240 1 0.394066 0.223312 0.414478
21234 1 0.394066 0.723312 0.414478
21802 1 0.46451 0.589468 0.438779
21796 1 0.46451 0.0894705 0.438779
21252 1 0.47881 0.277772 0.41458
21251 1 0.450479 0.92022 0.414514
21250 1 0.464708 0.603755 0.39028
21246 1 0.47881 0.77777 0.41458
21245 1 0.450479 0.420219 0.414514
21244 1 0.464708 0.103756 0.39028
21811 1 0.492984 0.958015 0.438864
21805 1 0.492983 0.458018 0.438864
21259 1 0.492987 0.957831 0.390305
21253 1 0.492987 0.457833 0.390305
21744 1 0.0570027 0.172897 0.463438
21743 3 0.0285356 0.839425 0.463443
21741 3 0.00038843 0.505753 0.463443
21738 1 0.0570027 0.672897 0.463438
21737 3 0.0285356 0.339425 0.463443
21735 3 0.00038843 0.00575351 0.463443
22286 3 0.014462 0.668643 0.487814
22288 1 0.0429253 0.0017353 0.487822
22292 3 0.014462 0.168643 0.487814
22294 1 0.0429253 0.501735 0.487822
21755 1 0.113135 0.84085 0.463452
21753 1 0.0850377 0.506754 0.463449
21749 1 0.113135 0.34085 0.463452
21747 1 0.0850377 0.0067544 0.463449
22297 1 0.0710083 0.335313 0.487832
22298 1 0.0991022 0.668951 0.487826
22300 1 0.127198 0.00274127 0.487816
22303 1 0.0710083 0.835313 0.487832
22304 1 0.0991022 0.168951 0.487826
22306 1 0.127198 0.502741 0.487816
21765 1 0.16933 0.50947 0.463428
21759 1 0.16933 0.00947046 0.463428
21756 1 0.141231 0.175092 0.463442
21750 1 0.141231 0.675092 0.463442
22309 1 0.155303 0.336641 0.487803
22310 1 0.183407 0.670604 0.487787
22315 1 0.155303 0.836641 0.487803
22316 1 0.183407 0.170604 0.487787
21777 1 0.253613 0.513704 0.463364
21771 1 0.253613 0.0137043 0.463364
21768 1 0.225522 0.178741 0.463389
21767 1 0.197427 0.844011 0.46341
21762 1 0.225522 0.678741 0.463389
21761 1 0.197427 0.344011 0.46341
22312 1 0.211509 0.00464969 0.487769
22318 1 0.211509 0.50465 0.487769
22321 1 0.239609 0.338784 0.487748
22327 1 0.239609 0.838785 0.487748
21780 1 0.309777 0.184795 0.463308
21779 1 0.281699 0.849004 0.463337
21774 1 0.309777 0.684795 0.463308
21773 1 0.281699 0.349003 0.463337
22322 1 0.267704 0.673035 0.487727
22324 1 0.295793 0.00747631 0.487704
22328 1 0.267704 0.173035 0.487727
22330 1 0.295793 0.507476 0.487704
21791 1 0.365908 0.859017 0.463232
21789 1 0.337847 0.521327 0.463273
21785 1 0.365908 0.359017 0.463232
21783 1 0.337847 0.0213267 0.463273
22333 1 0.323874 0.342218 0.48768
22334 1 0.351942 0.677459 0.487652
22336 1 0.379989 0.0135035 0.487619
22339 1 0.323874 0.842218 0.48768
22340 1 0.351942 0.177459 0.487652
22342 1 0.379989 0.513502 0.487619
21801 1 0.422006 0.541327 0.463106
21795 1 0.422006 0.0413272 0.463106
21792 1 0.393959 0.198563 0.46318
21786 1 0.393959 0.698561 0.46318
22345 1 0.407994 0.350905 0.487574
22346 1 0.43596 0.690946 0.487507
22351 1 0.407995 0.850905 0.487574
22352 1 0.43596 0.190944 0.487507
21804 1 0.478609 0.262465 0.463058
21803 1 0.450122 0.891862 0.462986
21798 1 0.478609 0.762463 0.463058
21797 1 0.450122 0.39186 0.462985
22348 1 0.464013 0.0414424 0.487351
22354 1 0.464013 0.541442 0.487351
22357 1 0.492982 0.45823 0.4874
22363 1 0.492982 0.958229 0.4874
22287 3 0.00038843 0.99808 0.512186
22289 3 0.0285356 0.331299 0.512186
22290 1 0.057014 0.664376 0.51223
22293 3 0.00038843 0.498079 0.512186
22295 3 0.0285356 0.8313 0.512186
22296 1 0.057014 0.164376 0.51223
22838 3 0.014462 0.66075 0.536557
22840 1 0.0426746 0.994371 0.536635
22841 3 0.0285356 0.323216 0.560928
22842 1 0.0570286 0.655137 0.560917
22844 3 0.014462 0.16075 0.536557
22846 1 0.0426746 0.494371 0.536635
22847 3 0.0285356 0.823216 0.560928
22848 1 0.0570286 0.155137 0.560917
22299 1 0.0850604 0.997456 0.512213
22301 1 0.113167 0.330782 0.512191
22305 1 0.0850604 0.497456 0.512213
22307 1 0.113167 0.830782 0.512191
22849 1 0.0710297 0.326509 0.536584
22850 1 0.0991369 0.659278 0.536567
22851 1 0.0851206 0.988011 0.560949
22852 1 0.127247 0.992239 0.536551
22853 1 0.113224 0.320713 0.560926
22855 1 0.0710297 0.826509 0.536584
22856 1 0.0991369 0.159278 0.536567
22857 1 0.0851206 0.488011 0.560949
22858 1 0.127247 0.492239 0.536551
22859 1 0.113224 0.820713 0.560926
22302 1 0.141276 0.664222 0.512177
22308 1 0.141276 0.164222 0.512177
22311 1 0.169386 0.997669 0.512161
22317 1 0.169386 0.497669 0.512161
22854 1 0.141333 0.653339 0.560907
22860 1 0.141333 0.153339 0.560907
22861 1 0.155363 0.325244 0.536534
22862 1 0.183479 0.658158 0.536519
22863 1 0.169454 0.985839 0.56089
22867 1 0.155363 0.825244 0.536534
22868 1 0.183479 0.158158 0.536519
22869 1 0.169454 0.485839 0.56089
22313 1 0.197496 0.331103 0.512145
22314 1 0.225605 0.664507 0.512128
22319 1 0.197496 0.831103 0.512145
22320 1 0.225605 0.164507 0.512128
22323 1 0.253712 0.997843 0.51211
22329 1 0.253712 0.497843 0.51211
22864 1 0.211595 0.990953 0.536503
22865 1 0.197575 0.318143 0.560875
22866 1 0.225698 0.650177 0.560862
22870 1 0.211595 0.490953 0.536503
22871 1 0.197575 0.818143 0.560875
22872 1 0.225698 0.150177 0.560862
22873 1 0.239712 0.32355 0.536488
22875 1 0.253822 0.981826 0.560851
22879 1 0.239712 0.82355 0.536488
22881 1 0.253822 0.481826 0.560851
22325 1 0.281815 0.331106 0.512094
22326 1 0.309913 0.664279 0.512078
22331 1 0.281815 0.831106 0.512094
22332 1 0.309913 0.164279 0.512078
22874 1 0.267827 0.655878 0.536475
22876 1 0.295941 0.987845 0.536465
22877 1 0.281946 0.31296 0.560844
22878 1 0.31007 0.643373 0.560844
22880 1 0.267827 0.155878 0.536475
22882 1 0.295941 0.487845 0.536465
22883 1 0.281946 0.81296 0.560844
22884 1 0.31007 0.143373 0.560844
22335 1 0.338005 0.997337 0.512064
22337 1 0.366086 0.330177 0.512055
22341 1 0.338005 0.497337 0.512064
22343 1 0.366086 0.830178 0.512055
22885 1 0.324053 0.319289 0.536461
22886 1 0.352162 0.649894 0.536466
22887 1 0.338193 0.972711 0.560855
22888 1 0.380268 0.978989 0.536487
22889 1 0.366313 0.300343 0.560887
22891 1 0.324053 0.81929 0.536461
22892 1 0.352162 0.149893 0.536465
22893 1 0.338193 0.472711 0.560855
22894 1 0.380268 0.47899 0.536487
22895 1 0.366313 0.800342 0.560887
22338 1 0.394147 0.662488 0.512052
22344 1 0.394147 0.162487 0.512052
22347 1 0.422185 0.993399 0.512067
22353 1 0.422185 0.493401 0.512067
22890 1 0.394429 0.625141 0.560955
22896 1 0.394429 0.125142 0.560955
22897 1 0.408372 0.30517 0.536545
22898 1 0.436496 0.625123 0.536673
22899 1 0.422545 0.945101 0.561088
22903 1 0.408371 0.805168 0.536545
22904 1 0.436496 0.125124 0.536673
22905 1 0.422545 0.445099 0.561088
22349 1 0.450269 0.320558 0.512133
22350 1 0.478543 0.625077 0.512402
22355 1 0.450269 0.820557 0.512133
22356 1 0.478543 0.125078 0.512402
22900 1 0.464639 0.929659 0.537018
22901 1 0.450655 0.256843 0.561367
22902 1 0.478816 0.559267 0.561721
22906 1 0.464639 0.429657 0.537018
22907 1 0.450655 0.756844 0.561367
22908 1 0.478816 0.0592664 0.561721
22909 1 0.492978 0.208748 0.537509
22915 1 0.492978 0.708749 0.537509
23390 3 0.014462 0.652971 0.585299
23392 3 0.0426091 0.985489 0.585299
23393 3 0.0285356 0.315337 0.609671
23394 1 0.056753 0.648117 0.609733
23396 3 0.014462 0.152972 0.585299
23398 3 0.0426091 0.485489 0.585299
23399 3 0.0285356 0.815337 0.609671
23400 1 0.056753 0.148117 0.609733
23401 1 0.0711042 0.317521 0.58533
23402 1 0.0991714 0.649726 0.585307
23403 1 0.0851232 0.979345 0.609667
23404 1 0.127296 0.981995 0.585279
23405 1 0.113251 0.311209 0.609645
23407 1 0.0711042 0.817521 0.58533
23408 1 0.0991714 0.149726 0.585307
23409 1 0.0851232 0.479345 0.609667
23410 1 0.127296 0.481995 0.585279
23411 1 0.113251 0.811209 0.609645
23406 1 0.141371 0.643017 0.609632
23412 1 0.141371 0.143017 0.609632
23413 1 0.155417 0.314143 0.585261
23414 1 0.183542 0.646064 0.585246
23415 1 0.169497 0.974659 0.609617
23419 1 0.155417 0.814143 0.585261
23420 1 0.183542 0.146064 0.585246
23421 1 0.169497 0.474659 0.609617
23416 1 0.211669 0.977679 0.585233
23417 1 0.197625 0.305985 0.609602
23418 1 0.225757 0.636872 0.609591
23422 1 0.211669 0.477679 0.585233
23423 1 0.197625 0.805985 0.609602
23424 1 0.225757 0.136872 0.609591
23425 1 0.239798 0.308867 0.585222
23427 1 0.25389 0.967176 0.609585
23431 1 0.239798 0.808868 0.585222
23433 1 0.25389 0.467177 0.609585
23426 1 0.267928 0.639476 0.585216
23428 1 0.296058 0.969299 0.585219
23429 1 0.282022 0.29671 0.609588
23430 1 0.310152 0.625226 0.609603
23432 1 0.267928 0.139476 0.585216
23434 1 0.296058 0.469299 0.585219
23435 1 0.282022 0.79671 0.609588
23436 1 0.310153 0.125226 0.609603
23437 1 0.324186 0.298029 0.585233
23438 1 0.352311 0.625175 0.585267
23439 1 0.338278 0.95237 0.609637
23440 1 0.38043 0.949968 0.585334
23441 1 0.366398 0.277645 0.609697
23443 1 0.324186 0.798029 0.585233
23444 1 0.352311 0.125176 0.585267
23445 1 0.338278 0.45237 0.609637
23446 1 0.38043 0.449967 0.585334
23447 1 0.366398 0.777646 0.609697
23442 1 0.394509 0.600424 0.609797
23448 1 0.394509 0.100423 0.609797
23449 1 0.408543 0.271294 0.585451
23450 1 0.436649 0.587777 0.585651
23451 1 0.422616 0.920108 0.609946
23455 1 0.408543 0.771295 0.585451
23456 1 0.436649 0.0877755 0.585651
23457 1 0.422616 0.420109 0.609946
23452 1 0.464776 0.899329 0.585901
23453 1 0.450735 0.236753 0.610127
23454 1 0.47889 0.551655 0.610251
23458 1 0.464776 0.39933 0.585901
23459 1 0.450735 0.736753 0.610127
23460 1 0.47889 0.0516551 0.610251
23461 1 0.492976 0.208871 0.586004
23467 1 0.492976 0.708869 0.586004
23944 3 0.0426091 0.977556 0.634042
23945 3 0.0285356 0.3078 0.658413
23946 3 0.0566827 0.639648 0.658413
23950 3 0.0426091 0.477555 0.634042
23951 3 0.0285356 0.8078 0.658413
23952 3 0.0566827 0.139649 0.658413
24496 3 0.0426091 0.970054 0.682784
24502 3 0.0426091 0.470054 0.682784
23953 1 0.0711045 0.308596 0.633996
23954 1 0.0992179 0.640702 0.634007
23955 1 0.0851962 0.9709 0.658354
23956 1 0.127324 0.972403 0.634002
23957 1 0.113236 0.302323 0.658379
23959 1 0.0711045 0.808596 0.633996
23960 1 0.0992179 0.140702 0.634007
23961 1 0.0851962 0.4709 0.658354
23962 1 0.127324 0.472403 0.634002
23963 1 0.113236 0.802323 0.658379
24505 3 0.0707563 0.301641 0.682784
24506 1 0.0991166 0.63298 0.682721
24508 1 0.127237 0.964007 0.682734
24511 3 0.0707563 0.801641 0.682784
24512 1 0.0991166 0.13298 0.682721
24514 1 0.127237 0.464007 0.682734
23958 1 0.141358 0.633627 0.658363
23964 1 0.141358 0.133627 0.658363
23965 1 0.155436 0.303846 0.63399
23966 1 0.183565 0.634998 0.633972
23967 1 0.169486 0.964643 0.658343
23971 1 0.155436 0.803846 0.63399
23972 1 0.183565 0.134998 0.633972
23973 1 0.169486 0.464643 0.658343
24517 1 0.15539 0.294858 0.68271
24518 1 0.183538 0.625413 0.682688
24523 1 0.15539 0.794858 0.68271
24524 1 0.183538 0.125413 0.682688
23968 1 0.211699 0.965715 0.633958
23969 1 0.197626 0.295265 0.658324
23970 1 0.225766 0.625355 0.658315
23974 1 0.211699 0.465715 0.633958
23975 1 0.197626 0.795265 0.658324
23976 1 0.225766 0.125355 0.658315
23977 1 0.239835 0.295862 0.633951
23979 1 0.253903 0.954779 0.658316
23983 1 0.239835 0.795862 0.633951
23985 1 0.253903 0.454779 0.658316
24520 1 0.211686 0.955506 0.682675
24526 1 0.211686 0.455506 0.682675
24529 1 0.239828 0.284986 0.682675
24535 1 0.239828 0.784986 0.682675
23978 1 0.267969 0.625289 0.633954
23980 1 0.2961 0.953805 0.633969
23981 1 0.282036 0.283401 0.65833
23982 1 0.310162 0.611046 0.658358
23984 1 0.267969 0.125289 0.633954
23986 1 0.2961 0.453805 0.633969
23987 1 0.282036 0.783401 0.65833
23988 1 0.310162 0.111046 0.658358
24530 1 0.267962 0.613759 0.682687
24532 1 0.296091 0.94171 0.682713
24536 1 0.267962 0.113759 0.682687
24538 1 0.296091 0.44171 0.682713
23989 1 0.324226 0.28116 0.634
23990 1 0.352346 0.607038 0.634054
23991 1 0.338283 0.937512 0.658405
23992 1 0.380459 0.931076 0.634137
23993 1 0.366398 0.262581 0.658476
23995 1 0.324226 0.78116 0.634
23996 1 0.352346 0.107037 0.634054
23997 1 0.338283 0.437512 0.658405
23998 1 0.380459 0.431076 0.634137
23999 1 0.366398 0.762581 0.658476
24541 1 0.324213 0.268709 0.682754
24542 1 0.352331 0.594616 0.682813
24544 1 0.380445 0.919343 0.682891
24547 1 0.324213 0.768709 0.682754
24548 1 0.352331 0.0946161 0.682813
24550 1 0.380445 0.419343 0.682891
23994 1 0.39451 0.586098 0.65857
24000 1 0.39451 0.0860984 0.65857
24001 1 0.408568 0.252986 0.634254
24002 1 0.436683 0.572824 0.634393
24003 1 0.422625 0.908113 0.658681
24007 1 0.408568 0.752985 0.634254
24008 1 0.436683 0.0728247 0.634394
24009 1 0.422625 0.408113 0.658681
24553 1 0.408563 0.242922 0.682982
24554 1 0.436689 0.56555 0.683072
24559 1 0.408563 0.742923 0.682982
24560 1 0.436689 0.0655497 0.683072
24562 1 0.464827 0.387552 0.68314