ITEM: TIMESTEP
45
ITEM: NUMBER OF ATOMS
2344
ITEM: BOX BOUNDS ss pp ss
-4.1846240876000003e+01 4.0972067143000004e+01
-4.1208122699999999e-01 4.5329187729999996e+00
-4.1922201418000000e+01 4.0912784134000006e+01
ITEM: ATOMS id type xs ys zs
17356 3 0.295933 0.0908211 0.0491324
17362 3 0.295933 0.590821 0.0491324
16817 3 0.366301 0.435969 0.0247612
16823 3 0.366301 0.93597 0.0247612
17365 3 0.32408 0.428298 0.0491324
17366 3 0.352228 0.765953 0.0491324
17368 3 0.380375 0.103772 0.0491324
17371 3 0.32408 0.928298 0.0491324
17372 3 0.352228 0.265954 0.0491324
17374 3 0.380375 0.603772 0.0491324
16818 3 0.394448 0.773661 0.0247612
16824 3 0.394448 0.273662 0.0247612
16827 3 0.422595 0.111466 0.0247612
16833 3 0.422595 0.611465 0.0247612
17377 3 0.408522 0.441732 0.0491324
17378 1 0.436715 0.778643 0.049237
17383 3 0.408522 0.941733 0.0491324
17384 1 0.436715 0.278643 0.049237
16829 3 0.450743 0.449357 0.0247612
16830 3 0.47889 0.78731 0.0247612
16835 3 0.450743 0.949358 0.0247612
16836 3 0.47889 0.28731 0.0247612
17380 1 0.464908 0.117615 0.0492544
17386 1 0.464908 0.617615 0.0492544
16837 3 0.492963 0.456396 0.00038994
16843 3 0.492963 0.956397 0.00038994
17389 1 0.492967 0.456762 0.0496436
17395 1 0.492967 0.956762 0.0496436
17355 3 0.253713 0.0830917 0.0735036
17361 3 0.253713 0.583091 0.0735036
17896 3 0.211492 0.0753669 0.0978748
17897 3 0.197418 0.404548 0.122246
17898 3 0.225565 0.741562 0.122246
17902 3 0.211492 0.575366 0.0978748
17903 3 0.197418 0.904549 0.122246
17904 3 0.225565 0.241562 0.122246
17905 3 0.239639 0.412433 0.0978748
17907 1 0.253905 0.0795104 0.122476
17911 3 0.239639 0.912434 0.0978748
17913 1 0.253905 0.57951 0.122476
17357 3 0.28186 0.420403 0.0735036
17358 3 0.310007 0.757931 0.0735036
17363 3 0.28186 0.920403 0.0735036
17364 3 0.310007 0.257931 0.0735036
17906 3 0.267786 0.749744 0.0978748
17908 1 0.296032 0.0880623 0.0981667
17909 1 0.282052 0.417177 0.122588
17910 1 0.310155 0.755066 0.122493
17912 3 0.267786 0.249744 0.0978748
17914 1 0.296032 0.588062 0.0981667
17915 1 0.282052 0.917177 0.122588
17916 1 0.310155 0.255066 0.122493
17367 1 0.338241 0.0952229 0.073537
17369 1 0.366436 0.434638 0.0738317
17373 1 0.338241 0.595223 0.073537
17375 1 0.366436 0.934638 0.0738317
17917 1 0.324249 0.425698 0.0981632
17918 1 0.352358 0.76377 0.0981338
17919 1 0.33828 0.0932178 0.122475
17920 1 0.380499 0.102278 0.0981707
17921 1 0.366405 0.4316 0.122499
17923 1 0.324249 0.925698 0.0981632
17924 1 0.352358 0.26377 0.0981338
17925 1 0.33828 0.593218 0.122475
17926 1 0.380499 0.602278 0.0981707
17927 1 0.366405 0.9316 0.122499
17370 1 0.394587 0.772212 0.0738576
17376 1 0.394587 0.272212 0.0738576
17379 1 0.422663 0.109861 0.0737549
17385 1 0.422663 0.609861 0.0737549
17922 1 0.394545 0.770273 0.122515
17928 1 0.394545 0.270273 0.122515
17929 1 0.408624 0.440506 0.0981366
17930 1 0.436733 0.778837 0.0981037
17931 1 0.422667 0.108995 0.122504
17935 1 0.408624 0.940506 0.0981366
17936 1 0.436733 0.278837 0.0981037
17937 1 0.422667 0.608995 0.122504
17381 1 0.450813 0.448354 0.0737449
17382 1 0.478925 0.787106 0.0739018
17387 1 0.450813 0.948354 0.0737449
17388 1 0.478925 0.287106 0.0739018
17932 1 0.464834 0.117487 0.0981702
17933 1 0.450775 0.447799 0.122521
17934 1 0.478896 0.786886 0.122574
17938 1 0.464834 0.617487 0.0981702
17939 1 0.450775 0.947799 0.122521
17940 1 0.478896 0.286886 0.122574
17941 1 0.492965 0.456473 0.0982748
17947 1 0.492965 0.956473 0.0982748
18438 3 0.141124 0.725871 0.170988
18444 3 0.141124 0.225871 0.170988
18445 3 0.155198 0.396895 0.146617
18446 3 0.183345 0.733555 0.146617
18447 3 0.169271 0.0624016 0.170988
18451 3 0.155198 0.896895 0.146617
18452 3 0.183345 0.233555 0.146617
18453 3 0.169271 0.562401 0.170988
18448 1 0.211456 0.0695654 0.146696
18449 1 0.197615 0.399918 0.171244
18450 1 0.225692 0.736609 0.171198
18454 1 0.211456 0.569565 0.146696
18455 1 0.197615 0.899918 0.171244
18456 1 0.225692 0.236609 0.171198
18457 1 0.239785 0.408078 0.146895
18459 1 0.25381 0.0743433 0.171185
18463 1 0.239785 0.908077 0.146895
18465 1 0.25381 0.574343 0.171185
18458 1 0.267907 0.745919 0.14686
18460 1 0.296065 0.084024 0.146865
18461 1 0.281957 0.412346 0.171192
18462 1 0.3101 0.750666 0.171189
18464 1 0.267907 0.245919 0.14686
18466 1 0.296065 0.584024 0.146865
18467 1 0.281957 0.912346 0.171192
18468 1 0.3101 0.250666 0.171189
18469 1 0.324196 0.422161 0.146842
18470 1 0.352323 0.760645 0.146842
18471 1 0.338235 0.0892052 0.171188
18472 1 0.380456 0.0994453 0.146857
18473 1 0.36637 0.428117 0.171202
18475 1 0.324196 0.922161 0.146842
18476 1 0.352323 0.260645 0.146842
18477 1 0.338235 0.589205 0.171188
18478 1 0.380456 0.599445 0.146857
18479 1 0.36637 0.928117 0.171202
18474 1 0.394506 0.767396 0.171222
18480 1 0.394506 0.267396 0.171222
18481 1 0.408589 0.438492 0.14687
18482 1 0.436712 0.777669 0.146884
18483 1 0.422639 0.106952 0.171242
18487 1 0.408589 0.938492 0.14687
18488 1 0.436712 0.277669 0.146884
18489 1 0.422639 0.606952 0.171242
18484 1 0.464836 0.117039 0.146913
18485 1 0.45077 0.446725 0.171264
18486 1 0.478905 0.786723 0.171285
18490 1 0.464836 0.617039 0.146913
18491 1 0.45077 0.946725 0.171264
18492 1 0.478905 0.286723 0.171285
18493 1 0.492972 0.456673 0.146938
18499 1 0.492972 0.956673 0.146938
18988 3 0.127051 0.0547374 0.19536
18989 3 0.112977 0.383518 0.219731
18994 3 0.127051 0.554737 0.19536
18995 3 0.112977 0.883519 0.219731
19538 3 0.0989034 0.712244 0.244102
19540 1 0.12708 0.0482417 0.244125
19544 3 0.0989034 0.212244 0.244102
19546 1 0.12708 0.548242 0.244125
18990 1 0.141152 0.719726 0.219755
18996 1 0.141152 0.219726 0.219755
18997 3 0.155198 0.391108 0.19536
18998 1 0.183561 0.728074 0.195625
18999 1 0.16942 0.0562229 0.219867
19003 3 0.155198 0.891109 0.19536
19004 1 0.183561 0.228074 0.195625
19005 1 0.16942 0.556223 0.219867
19549 1 0.155348 0.384514 0.244215
19550 1 0.183419 0.721176 0.2442
19555 1 0.155348 0.884514 0.244215
19556 1 0.183419 0.221176 0.2442
19000 1 0.211638 0.0652414 0.195565
19001 1 0.197525 0.393355 0.219891
19002 1 0.225656 0.730597 0.219882
19006 1 0.211638 0.565241 0.195565
19007 1 0.197525 0.893355 0.219891
19008 1 0.225656 0.230597 0.219882
19009 1 0.239742 0.40253 0.195528
19011 1 0.253774 0.0681862 0.21986
19015 1 0.239742 0.90253 0.195528
19017 1 0.253774 0.568186 0.21986
19552 1 0.21155 0.0583427 0.244212
19558 1 0.21155 0.558343 0.244212
19561 1 0.239675 0.39577 0.244201
19567 1 0.239675 0.89577 0.244201
19010 1 0.267865 0.740382 0.19552
19012 1 0.296 0.0786256 0.195521
19013 1 0.281903 0.406247 0.219856
19014 1 0.310039 0.744821 0.219861
19016 1 0.267865 0.240382 0.19552
19018 1 0.296 0.578626 0.195521
19019 1 0.281903 0.906247 0.219856
19020 1 0.310039 0.244821 0.219861
19562 1 0.267803 0.733605 0.244193
19564 1 0.295936 0.0719936 0.244192
19568 1 0.267803 0.233605 0.244193
19570 1 0.295936 0.571994 0.244192
19021 1 0.32414 0.417251 0.195529
19022 1 0.352278 0.756276 0.195542
19023 1 0.33818 0.0838901 0.219875
19024 1 0.380417 0.0957396 0.195563
19025 1 0.366322 0.423476 0.219896
19027 1 0.32414 0.917251 0.195529
19028 1 0.352278 0.256276 0.195542
19029 1 0.33818 0.58389 0.219875
19030 1 0.380417 0.59574 0.195563
19031 1 0.366322 0.923476 0.219896
19573 1 0.324074 0.410977 0.244202
19574 1 0.352218 0.750584 0.244222
19576 1 0.380366 0.0908394 0.24425
19579 1 0.324074 0.910977 0.244202
19580 1 0.352218 0.250584 0.244222
19582 1 0.380366 0.590839 0.24425
19026 1 0.394466 0.763584 0.219923
19032 1 0.394466 0.263584 0.219923
19033 1 0.408557 0.435603 0.195588
19034 1 0.436695 0.775795 0.195613
19035 1 0.422611 0.104158 0.219953
19039 1 0.408557 0.935603 0.195588
19040 1 0.436695 0.275795 0.195613
19041 1 0.422611 0.604158 0.219953
19585 1 0.408517 0.431727 0.244283
19586 1 0.43667 0.773173 0.244315
19591 1 0.408517 0.931727 0.244283
19592 1 0.43667 0.273173 0.244315
19036 1 0.464834 0.116257 0.195634
19037 1 0.450757 0.445121 0.219979
19038 1 0.478903 0.786358 0.219995
19042 1 0.464834 0.616257 0.195634
19043 1 0.450757 0.945121 0.219979
19044 1 0.478903 0.286358 0.219995
19588 1 0.464823 0.115045 0.24434
19594 1 0.464823 0.615045 0.24434
19045 1 0.492976 0.456908 0.195644
19051 1 0.492976 0.956908 0.195644
19597 1 0.492977 0.457152 0.244349
19603 1 0.492977 0.957152 0.244349
19539 3 0.0848298 0.0409426 0.268473
19541 1 0.113006 0.376723 0.268494
19545 3 0.0848298 0.540942 0.268473
19547 1 0.113006 0.876723 0.268494
20089 3 0.0707563 0.369645 0.292845
20090 1 0.0989319 0.705192 0.292863
20092 1 0.127201 0.0409719 0.292938
20095 3 0.0707563 0.869646 0.292845
20096 1 0.0989319 0.205192 0.292863
20098 1 0.127201 0.540972 0.292938
19542 1 0.141274 0.712758 0.268574
19548 1 0.141274 0.212758 0.268574
19551 1 0.169337 0.0491121 0.268541
19557 1 0.169337 0.549112 0.268541
20101 1 0.155262 0.377034 0.292897
20102 1 0.183369 0.71345 0.292886
20107 1 0.155262 0.877034 0.292897
20108 1 0.183369 0.21345 0.292886
19553 1 0.197452 0.385893 0.268541
19554 1 0.225573 0.723097 0.268537
19559 1 0.197452 0.885893 0.268541
19560 1 0.225573 0.223097 0.268537
19563 1 0.2537 0.0607078 0.26853
19569 1 0.2537 0.560708 0.26853
20104 1 0.21148 0.0502869 0.292877
20110 1 0.21148 0.550287 0.292877
20113 1 0.2396 0.387587 0.292869
20119 1 0.2396 0.887587 0.292869
19565 1 0.281829 0.398837 0.268525
19566 1 0.309964 0.737604 0.268528
19571 1 0.281829 0.898837 0.268525
19572 1 0.309964 0.237604 0.268528
20114 1 0.267724 0.725397 0.292861
20116 1 0.295854 0.0638376 0.292857
20120 1 0.267724 0.225397 0.292861
20122 1 0.295854 0.563838 0.292857
19575 1 0.338107 0.0770828 0.268542
19577 1 0.366256 0.417342 0.268568
19581 1 0.338107 0.577083 0.268542
19583 1 0.366256 0.917342 0.268568
20125 1 0.323991 0.403036 0.292863
20126 1 0.352137 0.743109 0.29288
20128 1 0.380294 0.0841703 0.292911
20131 1 0.323991 0.903036 0.292863
20132 1 0.352137 0.243109 0.29288
20134 1 0.380294 0.58417 0.292911
20144 1 0.436629 0.269314 0.292994
19578 1 0.394411 0.758414 0.268602
20143 1 0.408458 0.926258 0.292952
19584 1 0.394411 0.258414 0.268602
19587 1 0.422571 0.100264 0.268641
20138 1 0.436629 0.769314 0.292994
20137 1 0.408458 0.426258 0.292952
19593 1 0.422571 0.600264 0.268641
20146 1 0.464802 0.613144 0.293027
20140 1 0.464802 0.113145 0.293027
19589 1 0.450732 0.442771 0.268674
19590 1 0.478895 0.785723 0.268694
19595 1 0.450732 0.942771 0.268674
19596 1 0.478895 0.285723 0.268694
20149 1 0.492977 0.457403 0.293038
20155 1 0.492977 0.957403 0.293038
20640 3 0.0566827 0.190766 0.365958
20639 3 0.0285356 0.856088 0.365958
20638 3 0.0426091 0.52719 0.341587
20634 3 0.0566827 0.690766 0.365958
20633 3 0.0285356 0.356088 0.365958
20632 3 0.0426091 0.0271907 0.341587
20082 3 0.0566827 0.698385 0.317216
20088 3 0.0566827 0.198386 0.317216
20651 1 0.113083 0.860777 0.365981
20650 1 0.127128 0.532872 0.341621
20649 1 0.0850068 0.525659 0.366022
20648 1 0.0990569 0.197425 0.341666
20647 3 0.0707563 0.862139 0.341587
20645 1 0.113083 0.360777 0.365981
20644 1 0.127128 0.0328715 0.341621
20643 1 0.0850068 0.0256592 0.366022
20642 1 0.0990569 0.697425 0.341666
20641 3 0.0707563 0.362139 0.341587
20091 1 0.0848572 0.033675 0.317231
20093 1 0.11313 0.369182 0.317304
20097 1 0.0848572 0.533675 0.317232
20099 1 0.11313 0.869182 0.317304
20661 1 0.169282 0.531738 0.365949
20660 1 0.183333 0.204592 0.341584
20659 1 0.155233 0.868561 0.341602
20655 1 0.169282 0.031738 0.365949
20654 1 0.183333 0.704592 0.341584
20653 1 0.155233 0.368561 0.341602
20652 1 0.141187 0.196105 0.365966
20646 1 0.141187 0.696105 0.365966
20094 1 0.141191 0.704947 0.317258
20100 1 0.141191 0.204947 0.317258
20103 1 0.169296 0.0410061 0.317241
20109 1 0.169296 0.541006 0.317241
20673 1 0.253574 0.541092 0.365894
20671 1 0.239543 0.877967 0.341554
20667 1 0.253574 0.0410921 0.365894
20665 1 0.239543 0.377967 0.341554
20664 1 0.225475 0.20415 0.365915
20663 1 0.197379 0.867731 0.365933
20662 1 0.211437 0.541035 0.34157
20658 1 0.225475 0.70415 0.365915
20657 1 0.197379 0.367731 0.365933
20656 1 0.211437 0.0410346 0.34157
20105 1 0.1974 0.377444 0.317226
20106 1 0.225512 0.714333 0.317215
20111 1 0.1974 0.877444 0.317226
20112 1 0.225512 0.214333 0.317215
20115 1 0.253627 0.0517446 0.317202
20121 1 0.253627 0.551745 0.317202
20676 1 0.309788 0.217079 0.365857
20675 1 0.281678 0.878677 0.365874
20674 1 0.295768 0.553706 0.341524
20672 1 0.267652 0.215482 0.341537
20670 1 0.309788 0.717079 0.365857
20669 1 0.281678 0.378677 0.365874
20668 1 0.295768 0.0537062 0.341524
20666 1 0.267652 0.715482 0.341537
20117 1 0.281747 0.389765 0.317192
20118 1 0.309875 0.728537 0.317188
20123 1 0.281747 0.889765 0.317192
20124 1 0.309875 0.228537 0.317188
20687 1 0.366049 0.897415 0.365849
20686 1 0.380192 0.574716 0.341546
20685 1 0.33791 0.556547 0.365846
20684 1 0.352035 0.233066 0.341524
20683 1 0.323895 0.892822 0.341518
20681 1 0.366049 0.397415 0.365849
20680 1 0.380192 0.0747164 0.341546
20679 1 0.33791 0.0565472 0.365846
20678 1 0.352035 0.733066 0.341524
20677 1 0.323895 0.392822 0.341518
20135 1 0.366166 0.909012 0.317216
20127 1 0.338014 0.0682239 0.317195
20129 1 0.366166 0.409012 0.317216
20133 1 0.338014 0.568224 0.317195
20697 1 0.422404 0.585148 0.365913
20696 1 0.436562 0.263184 0.341638
20695 1 0.408368 0.918045 0.341586
20691 1 0.422404 0.085148 0.365913
20690 1 0.436562 0.763185 0.341638
20689 1 0.408368 0.418046 0.341586
20688 1 0.394212 0.240124 0.36587
20682 1 0.394212 0.740124 0.36587
20145 1 0.422508 0.594458 0.317297
20139 1 0.422508 0.0944575 0.317297
20136 1 0.394331 0.251065 0.317251
20130 1 0.394331 0.751065 0.317251
20700 1 0.478857 0.282477 0.366011
20699 1 0.450623 0.932751 0.36597
20698 1 0.464767 0.60993 0.341683
20694 1 0.478857 0.782477 0.366011
20693 1 0.450623 0.432751 0.36597
20692 1 0.464767 0.109931 0.341683
20148 1 0.478882 0.284603 0.31737
20147 1 0.450693 0.939087 0.317342
20142 1 0.478882 0.784603 0.31737
20141 1 0.450693 0.439087 0.317342
20707 1 0.492977 0.957642 0.341701
20701 1 0.492977 0.457642 0.341701
21742 3 0.0426091 0.51145 0.439072
21740 3 0.014462 0.177469 0.439072
21736 3 0.0426091 0.0114506 0.439072
21734 3 0.014462 0.677469 0.439072
21192 1 0.0569632 0.18217 0.414783
21191 3 0.0285356 0.848409 0.414701
21190 3 0.0426091 0.519514 0.390329
21188 3 0.014462 0.185103 0.390329
21186 1 0.0569632 0.68217 0.414783
21185 3 0.0285356 0.348408 0.414701
21184 3 0.0426091 0.0195147 0.390329
21182 3 0.014462 0.685103 0.390329
21754 1 0.127211 0.513637 0.43908
21752 1 0.0991507 0.179141 0.439092
21751 1 0.0711319 0.844931 0.439088
21748 1 0.127211 0.0136372 0.43908
21746 1 0.0991507 0.679141 0.439092
21745 1 0.0711319 0.344931 0.439088
21203 1 0.113161 0.851316 0.414711
21202 1 0.127167 0.523623 0.390334
21201 1 0.0850832 0.516696 0.414731
21200 1 0.0990853 0.188582 0.390348
21199 1 0.0710797 0.853834 0.390404
21197 1 0.113161 0.351316 0.414711
21196 1 0.127167 0.0236226 0.390334
21195 1 0.0850832 0.0166959 0.414731
21194 1 0.0990853 0.688582 0.390348
21193 1 0.0710797 0.353834 0.390404
21764 1 0.183365 0.183213 0.439046
21763 1 0.155284 0.84834 0.439065
21758 1 0.183365 0.683213 0.439046
21757 1 0.155284 0.34834 0.439065
21213 1 0.169309 0.521294 0.414682
21212 1 0.183337 0.19446 0.390304
21211 1 0.155248 0.858901 0.390319
21207 1 0.169309 0.0212937 0.414682
21206 1 0.183337 0.69446 0.390304
21205 1 0.155248 0.358901 0.390319
21204 1 0.141228 0.186167 0.414696
21198 1 0.141228 0.686167 0.414696
21775 1 0.239533 0.853722 0.438999
21769 1 0.239533 0.353722 0.438999
21766 1 0.211449 0.518316 0.439023
21760 1 0.211449 0.0183163 0.439023
21225 1 0.253561 0.528554 0.414615
21223 1 0.239516 0.866705 0.390263
21219 1 0.253561 0.0285539 0.414615
21217 1 0.239516 0.366705 0.390263
21216 1 0.225476 0.192409 0.41464
21215 1 0.197391 0.856685 0.414663
21214 1 0.211425 0.530368 0.390285
21210 1 0.225476 0.692409 0.41464
21209 1 0.197391 0.356685 0.414663
21208 1 0.211425 0.0303683 0.390285
21778 1 0.295696 0.525886 0.438943
21776 1 0.267616 0.189524 0.438972
21772 1 0.295696 0.025886 0.438943
21770 1 0.267616 0.689524 0.438972
21228 1 0.309733 0.202734 0.414559
21227 1 0.281646 0.865263 0.414588
21226 1 0.295704 0.541171 0.390214
21224 1 0.267608 0.203584 0.390238
21222 1 0.309733 0.702733 0.414559
21221 1 0.281647 0.365263 0.414588
21220 1 0.295704 0.0411709 0.390214
21218 1 0.267608 0.703584 0.390238
21790 1 0.379933 0.541373 0.438835
21788 1 0.351851 0.201349 0.438874
21787 1 0.323774 0.863039 0.43891
21784 1 0.379933 0.0413729 0.438835
21782 1 0.351851 0.701349 0.438874
21781 1 0.323774 0.363039 0.43891
21239 1 0.365927 0.881281 0.414502
21238 1 0.380055 0.561026 0.390168
21237 1 0.337825 0.54126 0.414529
21236 1 0.35192 0.219483 0.390174
21235 1 0.323806 0.879693 0.390191
21233 1 0.365927 0.381281 0.414502
21232 1 0.380055 0.0610263 0.390168
21231 1 0.337825 0.0412601 0.414529
21230 1 0.35192 0.719483 0.390174
21229 1 0.323806 0.379693 0.390191
21800 1 0.436186 0.231892 0.438749
21799 1 0.408034 0.884101 0.438793
21794 1 0.436186 0.731892 0.438749
21793 1 0.408034 0.384102 0.438793
21249 1 0.42222 0.569151 0.414481
21248 1 0.436438 0.252469 0.390228
21247 1 0.408224 0.905036 0.390184
21243 1 0.42222 0.0691499 0.414481
21242 1 0.436438 0.75247 0.390228
21241 1 0.408224 0.405036 0.390184
21240 1 0.394052 0.223495 0.414482
21234 1 0.394052 0.723495 0.414483
21802 1 0.464501 0.589553 0.438788
21796 1 0.464501 0.089554 0.438788
21252 1 0.478801 0.277817 0.414591
21251 1 0.450468 0.920318 0.414523
21250 1 0.464697 0.603822 0.39029
21246 1 0.478801 0.777816 0.414591
21245 1 0.450468 0.420317 0.414523
21244 1 0.464697 0.103823 0.39029
21811 1 0.492975 0.958041 0.438874
21805 1 0.492975 0.458042 0.438874
21259 1 0.492977 0.957853 0.390317
21253 1 0.492977 0.457854 0.390317
21744 1 0.0569935 0.17327 0.463393
21743 3 0.0285356 0.840435 0.463443
21738 1 0.0569935 0.67327 0.463393
21737 3 0.0285356 0.340435 0.463443
22286 3 0.014462 0.66963 0.487814
22288 1 0.0426945 0.00385524 0.487689
22292 3 0.014462 0.16963 0.487814
22294 1 0.0426945 0.503855 0.487689
21755 1 0.113169 0.841503 0.463464
21753 1 0.0850919 0.507422 0.46346
21749 1 0.113169 0.341503 0.463464
21747 1 0.0850919 0.00742206 0.46346
22297 1 0.0709806 0.336253 0.487804
22298 1 0.0990851 0.669794 0.487831
22300 1 0.127195 0.00351484 0.487825
22303 1 0.0709806 0.836253 0.487804
22304 1 0.0990851 0.169794 0.487831
22306 1 0.127195 0.503515 0.487825
21765 1 0.169338 0.510073 0.46343
21759 1 0.169338 0.0100731 0.46343
21756 1 0.141249 0.175717 0.463449
21750 1 0.141249 0.675717 0.463449
22309 1 0.155302 0.337347 0.487809
22310 1 0.183405 0.67124 0.48779
22315 1 0.155302 0.837347 0.487809
22316 1 0.183405 0.17124 0.48779
21777 1 0.253605 0.514135 0.46336
21771 1 0.253605 0.0141354 0.46336
21768 1 0.225517 0.179231 0.463384
21767 1 0.197428 0.84456 0.463408
21762 1 0.225517 0.679231 0.463384
21761 1 0.197428 0.34456 0.463408
22312 1 0.211505 0.00521309 0.487769
22318 1 0.211505 0.505213 0.487769
22321 1 0.239602 0.33927 0.487747
22327 1 0.239602 0.83927 0.487747
21780 1 0.309765 0.18512 0.463306
21779 1 0.281688 0.84938 0.463334
21774 1 0.309765 0.68512 0.463306
21773 1 0.281688 0.34938 0.463334
22322 1 0.267695 0.673453 0.487725
22324 1 0.295783 0.0078397 0.487702
22328 1 0.267695 0.173453 0.487725
22330 1 0.295783 0.50784 0.487702
21791 1 0.365896 0.85925 0.463233
21789 1 0.337835 0.521607 0.463273
21785 1 0.365896 0.35925 0.463233
21783 1 0.337835 0.0216069 0.463273
22333 1 0.323863 0.342531 0.487679
22334 1 0.351931 0.677721 0.487652
22336 1 0.379978 0.0137216 0.487621
22339 1 0.323863 0.842531 0.487679
22340 1 0.351931 0.177722 0.487652
22342 1 0.379978 0.513721 0.487621
21801 1 0.421996 0.541484 0.463112
21795 1 0.421996 0.0414842 0.463112
21792 1 0.393948 0.198756 0.463183
21786 1 0.393948 0.698755 0.463183
22345 1 0.407985 0.351089 0.487577
22346 1 0.435952 0.691097 0.487513
22351 1 0.407985 0.85109 0.487577
22352 1 0.435952 0.191095 0.487513
21804 1 0.478602 0.262538 0.463067
21803 1 0.450113 0.891983 0.462993
21798 1 0.478602 0.762537 0.463067
21797 1 0.450113 0.391981 0.462993
22348 1 0.464006 0.0415675 0.487357
22354 1 0.464006 0.541567 0.487357
22357 1 0.492976 0.458253 0.487409
22363 1 0.492976 0.958252 0.487409
22287 3 0.00038843 0.99904 0.512186
22289 3 0.0285356 0.332316 0.512186
22290 1 0.0569183 0.665401 0.512186
22293 3 0.00038843 0.49904 0.512186
22295 3 0.0285356 0.832317 0.512186
22296 1 0.0569183 0.165401 0.512186
22838 3 0.014462 0.661733 0.536557
22840 1 0.0426829 0.995364 0.536686
22841 3 0.0285356 0.324218 0.560928
22842 1 0.0570338 0.65613 0.56093
22844 3 0.014462 0.161733 0.536557
22846 1 0.0426829 0.495364 0.536686
22847 3 0.0285356 0.824219 0.560928
22848 1 0.0570338 0.15613 0.56093
22299 1 0.0849918 0.998437 0.512185
22301 1 0.113134 0.331686 0.512187
22305 1 0.0849918 0.498437 0.512185
22307 1 0.113134 0.831686 0.512187
22849 1 0.0709969 0.327386 0.536556
22850 1 0.099103 0.660128 0.536548
22851 1 0.0851089 0.988862 0.560937
22852 1 0.127222 0.993065 0.536544
22853 1 0.113205 0.321511 0.560914
22855 1 0.0709969 0.827386 0.536556
22856 1 0.099103 0.160128 0.536548
22857 1 0.0851089 0.488862 0.560937
22858 1 0.127222 0.493065 0.536544
22859 1 0.113205 0.821511 0.560914
22302 1 0.141258 0.665033 0.51218
22308 1 0.141258 0.165033 0.51218
22311 1 0.169376 0.998392 0.512165
22317 1 0.169376 0.498392 0.512165
22854 1 0.141316 0.654101 0.560902
22860 1 0.141316 0.154101 0.560902
22861 1 0.155346 0.326008 0.536533
22862 1 0.183466 0.658851 0.53652
22863 1 0.169439 0.986552 0.560889
22867 1 0.155346 0.826008 0.536533
22868 1 0.183466 0.158851 0.53652
22869 1 0.169439 0.486552 0.560889
22313 1 0.197488 0.331744 0.512147
22314 1 0.225597 0.665063 0.512129
22319 1 0.197488 0.831744 0.512147
22320 1 0.225597 0.165063 0.512129
22323 1 0.253702 0.998316 0.51211
22329 1 0.253702 0.498316 0.51211
22864 1 0.211585 0.991564 0.536505
22865 1 0.197562 0.318789 0.560876
22866 1 0.225686 0.650749 0.560863
22870 1 0.211585 0.491564 0.536505
22871 1 0.197562 0.818789 0.560876
22872 1 0.225686 0.150749 0.560863
22873 1 0.239701 0.32408 0.536489
22875 1 0.253811 0.982328 0.560852
22879 1 0.239701 0.82408 0.536489
22881 1 0.253811 0.482328 0.560852
22325 1 0.281805 0.331515 0.512093
22326 1 0.309903 0.664632 0.512077
22331 1 0.281805 0.831515 0.512093
22332 1 0.309903 0.164632 0.512077
22874 1 0.267816 0.656338 0.536475
22876 1 0.295931 0.988248 0.536465
22877 1 0.281935 0.313407 0.560844
22878 1 0.31006 0.643763 0.560844
22880 1 0.267816 0.156338 0.536475
22882 1 0.295931 0.488248 0.536465
22883 1 0.281935 0.813407 0.560844
22884 1 0.31006 0.143763 0.560844
22335 1 0.337995 0.997638 0.512065
22337 1 0.366076 0.330429 0.512056
22341 1 0.337995 0.497638 0.512065
22343 1 0.366076 0.83043 0.512056
22885 1 0.324043 0.319632 0.536461
22886 1 0.352153 0.650185 0.536466
22887 1 0.338183 0.973042 0.560856
22888 1 0.380259 0.979229 0.536489
22889 1 0.366304 0.300621 0.560888
22891 1 0.324043 0.819632 0.536461
22892 1 0.352153 0.150185 0.536466
22893 1 0.338183 0.473042 0.560856
22894 1 0.380259 0.47923 0.536489
22895 1 0.366304 0.800621 0.560888
22338 1 0.394138 0.662698 0.512054
22344 1 0.394138 0.162697 0.512054
22347 1 0.422177 0.99357 0.512071
22353 1 0.422177 0.493571 0.512071
22890 1 0.394422 0.625365 0.560957
22896 1 0.394422 0.125365 0.560957
22897 1 0.408363 0.305358 0.536548
22898 1 0.436489 0.625264 0.536677
22899 1 0.422538 0.945263 0.561092
22903 1 0.408363 0.805357 0.536548
22904 1 0.436489 0.125265 0.536677
22905 1 0.422538 0.445263 0.561092
22349 1 0.450261 0.320695 0.512138
22350 1 0.478536 0.625172 0.512409
22355 1 0.450261 0.820694 0.512138
22356 1 0.478536 0.125173 0.512409
22900 1 0.464633 0.929741 0.537024
22901 1 0.450649 0.256941 0.561372
22902 1 0.478811 0.559292 0.561727
22906 1 0.464633 0.42974 0.537024
22907 1 0.450649 0.756942 0.561372
22908 1 0.47881 0.0592915 0.561727
22909 1 0.492973 0.208729 0.537517
22915 1 0.492973 0.708729 0.537517
23390 3 0.014462 0.653932 0.585299
23392 3 0.0426091 0.986505 0.585299
23393 3 0.0285356 0.316305 0.609671
23394 1 0.0567528 0.649064 0.609733
23396 3 0.014462 0.153933 0.585299
23398 3 0.0426091 0.486505 0.585299
23399 3 0.0285356 0.816306 0.609671
23400 1 0.0567528 0.149064 0.609733
23401 1 0.0711047 0.318466 0.585332
23402 1 0.0991643 0.650562 0.585301
23403 1 0.0851218 0.980237 0.609666
23404 1 0.127284 0.982766 0.585273
23405 1 0.113246 0.312021 0.609643
23407 1 0.0711047 0.818466 0.585332
23408 1 0.0991643 0.150562 0.585301
23409 1 0.0851218 0.480237 0.609666
23410 1 0.127284 0.482766 0.585273
23411 1 0.113246 0.812021 0.609643
23406 1 0.141363 0.643754 0.609631
23412 1 0.141363 0.143754 0.609631
23413 1 0.155405 0.314863 0.585259
23414 1 0.18353 0.646727 0.585246
23415 1 0.169486 0.975331 0.609618
23419 1 0.155405 0.814863 0.585259
23420 1 0.18353 0.146727 0.585246
23421 1 0.169486 0.475331 0.609618
23416 1 0.211657 0.978278 0.585234
23417 1 0.197613 0.306595 0.609605
23418 1 0.225745 0.637424 0.609593
23422 1 0.211657 0.478278 0.585234
23423 1 0.197613 0.806595 0.609605
23424 1 0.225745 0.137424 0.609593
23425 1 0.239786 0.309401 0.585224
23427 1 0.253878 0.967679 0.609587
23431 1 0.239786 0.809401 0.585224
23433 1 0.253878 0.467679 0.609587
23426 1 0.267917 0.639955 0.585217
23428 1 0.296047 0.969733 0.585219
23429 1 0.282011 0.297173 0.609588
23430 1 0.310143 0.625647 0.609603
23432 1 0.267917 0.139955 0.585217
23434 1 0.296047 0.469733 0.585219
23435 1 0.282011 0.797173 0.609588
23436 1 0.310143 0.125647 0.609603
23437 1 0.324176 0.298406 0.585233
23438 1 0.352302 0.625495 0.585268
23439 1 0.33827 0.952738 0.609636
23440 1 0.380423 0.950233 0.585335
23441 1 0.366391 0.277954 0.609698
23443 1 0.324176 0.798406 0.585233
23444 1 0.352302 0.125495 0.585268
23445 1 0.33827 0.452738 0.609636
23446 1 0.380423 0.450233 0.585335
23447 1 0.366391 0.777954 0.609698
23442 1 0.394503 0.600671 0.609798
23448 1 0.394503 0.100671 0.609798
23449 1 0.408536 0.271497 0.585453
23450 1 0.436643 0.587907 0.585655
23451 1 0.42261 0.920287 0.609949
23455 1 0.408536 0.771498 0.585453
23456 1 0.436643 0.0879063 0.585655
23457 1 0.42261 0.420287 0.609949
23452 1 0.464771 0.899389 0.585907
23453 1 0.45073 0.236858 0.610132
23454 1 0.478885 0.551686 0.610257
23458 1 0.464771 0.39939 0.585907
23459 1 0.45073 0.736858 0.610132
23460 1 0.478885 0.0516865 0.610257
23461 1 0.492971 0.208859 0.586011
23467 1 0.492971 0.708858 0.586011
23944 3 0.0426091 0.978526 0.634042
23945 3 0.0285356 0.308719 0.658413
23946 3 0.0566827 0.640614 0.658413
23950 3 0.0426091 0.478526 0.634042
23951 3 0.0285356 0.80872 0.658413
23952 3 0.0566827 0.140614 0.658413
24496 3 0.0426091 0.970965 0.682784
24502 3 0.0426091 0.470965 0.682784
23953 1 0.071104 0.309518 0.633997
23954 1 0.0992161 0.641564 0.634008
23955 1 0.0851957 0.971806 0.658355
23956 1 0.12732 0.973184 0.634004
23957 1 0.113234 0.303156 0.658382
23959 1 0.071104 0.809518 0.633997
23960 1 0.0992161 0.141564 0.634008
23961 1 0.0851957 0.471806 0.658355
23962 1 0.12732 0.473184 0.634004
23963 1 0.113234 0.803156 0.658382
24505 3 0.0707563 0.302594 0.682784
24506 1 0.0991161 0.633862 0.682723
24508 1 0.127235 0.964799 0.682742
24511 3 0.0707563 0.802594 0.682784
24512 1 0.0991161 0.133862 0.682723
24514 1 0.127235 0.464799 0.682742
23958 1 0.141353 0.634367 0.658369
23964 1 0.141353 0.134367 0.658369
23965 1 0.155428 0.304542 0.633993
23966 1 0.183555 0.635618 0.633977
23967 1 0.169478 0.965286 0.658352
23971 1 0.155428 0.804542 0.633993
23972 1 0.183555 0.135618 0.633977
23973 1 0.169478 0.465286 0.658352
24517 1 0.155383 0.295536 0.682722
24518 1 0.183526 0.625982 0.682702
24523 1 0.155383 0.795536 0.682722
24524 1 0.183526 0.125982 0.682702
23968 1 0.211687 0.966274 0.633963
23969 1 0.197614 0.29583 0.658333
23970 1 0.225752 0.625874 0.65832
23974 1 0.211687 0.466274 0.633963
23975 1 0.197614 0.79583 0.658333
23976 1 0.225752 0.125874 0.65832
23977 1 0.239822 0.296375 0.633954
23979 1 0.25389 0.955273 0.658318
23983 1 0.239822 0.796375 0.633954
23985 1 0.25389 0.455273 0.658318
24520 1 0.211671 0.956019 0.682685
24526 1 0.211671 0.456019 0.682685
24529 1 0.239813 0.285487 0.682678
24535 1 0.239813 0.785487 0.682678
23978 1 0.267957 0.62577 0.633955
23980 1 0.29609 0.954255 0.633968
23981 1 0.282025 0.283876 0.658328
23982 1 0.310154 0.611496 0.658355
23984 1 0.267957 0.12577 0.633955
23986 1 0.29609 0.454255 0.633968
23987 1 0.282025 0.783876 0.658328
23988 1 0.310154 0.111496 0.658355
24530 1 0.267951 0.614255 0.682686
24532 1 0.296082 0.942195 0.682709
24536 1 0.267951 0.114255 0.682686
24538 1 0.296082 0.442195 0.682709
23989 1 0.324218 0.281573 0.633998
23990 1 0.352339 0.607401 0.634053
23991 1 0.338276 0.937924 0.658403
23992 1 0.380453 0.931376 0.634137
23993 1 0.366393 0.262938 0.658474
23995 1 0.324218 0.781573 0.633998
23996 1 0.352339 0.107401 0.634053
23997 1 0.338276 0.437924 0.658403
23998 1 0.380453 0.431376 0.634137
23999 1 0.366393 0.762938 0.658474
24541 1 0.324207 0.269162 0.682749
24542 1 0.352327 0.595021 0.68281
24544 1 0.380442 0.919688 0.68289
24547 1 0.324207 0.769162 0.682749
24548 1 0.352327 0.0950211 0.68281
24550 1 0.380442 0.419688 0.68289
23994 1 0.394505 0.586388 0.658571
24000 1 0.394505 0.0863877 0.658571
24001 1 0.408562 0.253217 0.634256
24002 1 0.436678 0.572983 0.634397
24003 1 0.422621 0.908329 0.658685
24007 1 0.408562 0.753217 0.634256
24008 1 0.436678 0.0729838 0.634397
24009 1 0.422621 0.408329 0.658685
24553 1 0.40856 0.243195 0.682984
24554 1 0.436685 0.565743 0.683077
24559 1 0.40856 0.743196 0.682984
24560 1 0.436685 0.0657432 0.683077
24562 1 0.464822 0.387666 0.683147
24004 1 0.464815 0.891307 0.634518
24005 1 0.450749 0.229092 0.658792
24006 1 0.478893 0.549202 0.658858
24010 1 0.464815 0.391307 0.634518
24011 1 0.450749 0.729092 0.658792
24012 1 0.478893 0.0492021 0.658858
24556 1 0.464822 0.887666 0.683147
24013 1 0.49297 0.209043 0.634565
24019 1 0.49297 0.709044 0.634565
24565 1 0.492968 0.209292 0.683174
24571 1 0.492968 0.709292 0.683174
24498 3 0.0566827 0.63313 0.707155
24504 3 0.0566827 0.133131 0.707155
25066 1 0.127218 0.45708 0.731432
25064 3 0.0989034 0.126356 0.731527
25063 3 0.0707563 0.795243 0.731527