ITEM: TIMESTEP
44
ITEM: NUMBER OF ATOMS
2356
ITEM: BOX BOUNDS ss pp ss
-4.1846240876000003e+01 4.0972067143000004e+01
-4.1208122699999999e-01 4.5329187729999996e+00
-4.0660457756000000e+01 4.0155737936000001e+01
ITEM: ATOMS id type xs ys zs
16806 3 0.310007 0.760102 0.0253797
16812 3 0.310007 0.260102 0.0253797
17354 3 0.267786 0.752418 0.0503597
17356 3 0.295933 0.0897884 0.0503597
17360 3 0.267786 0.252418 0.0503597
17362 3 0.295933 0.589788 0.0503597
16815 3 0.338154 0.0976089 0.0253797
16816 3 0.380375 0.105161 0.00039968
16817 3 0.366301 0.435278 0.0253797
16821 3 0.338154 0.597608 0.0253797
16822 3 0.380375 0.605161 0.00039968
16823 3 0.366301 0.935279 0.0253797
17365 3 0.32408 0.427362 0.0503597
17366 3 0.352228 0.76513 0.0503597
17368 1 0.380464 0.104169 0.0506824
17371 3 0.32408 0.927362 0.0503597
17372 3 0.352228 0.26513 0.0503597
17374 1 0.380464 0.604169 0.0506824
16818 3 0.394448 0.773094 0.0253797
16824 3 0.394448 0.273094 0.0253797
16825 3 0.408522 0.442837 0.00039968
16826 3 0.436669 0.780609 0.00039968
16827 3 0.422595 0.111032 0.0253797
16831 3 0.408522 0.942837 0.00039968
16832 3 0.436669 0.28061 0.00039968
16833 3 0.422595 0.611032 0.0253797
17377 1 0.408629 0.441652 0.0507094
17378 1 0.436707 0.779454 0.0505767
17383 1 0.408629 0.941652 0.0507094
17384 1 0.436707 0.279454 0.0505767
16828 3 0.464816 0.118452 0.00039968
16829 3 0.450743 0.449066 0.0253797
16830 3 0.47889 0.787167 0.0253797
16834 3 0.464816 0.618451 0.00039968
16835 3 0.450743 0.949067 0.0253797
16836 3 0.47889 0.287168 0.0253797
17380 1 0.464828 0.117727 0.0505589
17386 1 0.464828 0.617727 0.0505589
16837 3 0.492963 0.456336 0.00039968
16843 3 0.492963 0.956337 0.00039968
17389 1 0.492957 0.456103 0.0505562
17395 1 0.492957 0.956103 0.0505562
17895 3 0.169271 0.0661886 0.1253
17901 3 0.169271 0.566188 0.1253
17346 3 0.225565 0.744688 0.0753397
17352 3 0.225565 0.244689 0.0753397
17355 3 0.253713 0.0818413 0.0753397
17361 3 0.253713 0.581841 0.0753397
17896 3 0.211492 0.0739238 0.10032
17897 3 0.197418 0.402969 0.1253
17898 1 0.225519 0.738944 0.125386
17902 3 0.211492 0.573923 0.10032
17903 3 0.197418 0.90297 0.1253
17904 1 0.225519 0.238944 0.125386
17905 3 0.239639 0.41104 0.10032
17907 1 0.253843 0.0774398 0.12559
17911 3 0.239639 0.91104 0.10032
17913 1 0.253843 0.57744 0.12559
17357 3 0.28186 0.419228 0.0753397
17358 1 0.310093 0.757482 0.0756391
17363 3 0.28186 0.919228 0.0753397
17364 1 0.310093 0.257482 0.0756391
17906 1 0.26797 0.748912 0.100557
17908 1 0.296113 0.0865507 0.100672
17909 1 0.281962 0.415248 0.125551
17910 1 0.31012 0.753319 0.125552
17912 1 0.26797 0.248912 0.100557
17914 1 0.296113 0.586551 0.100672
17915 1 0.281962 0.915248 0.125551
17916 1 0.31012 0.253319 0.125552
17367 1 0.338297 0.0951641 0.075633
17369 1 0.366391 0.433192 0.0755791
17373 1 0.338297 0.595164 0.075633
17375 1 0.366391 0.933192 0.0755791
17917 1 0.32421 0.424415 0.100571
17918 1 0.35233 0.762553 0.10054
17919 1 0.338251 0.0914109 0.12552
17920 1 0.380452 0.100851 0.100552
17921 1 0.366378 0.429829 0.125509
17923 1 0.32421 0.924415 0.100571
17924 1 0.35233 0.262553 0.10054
17925 1 0.338251 0.591411 0.12552
17926 1 0.380452 0.600851 0.100552
17927 1 0.366378 0.929829 0.125509
17370 1 0.394536 0.771641 0.0756182
17376 1 0.394536 0.271641 0.0756182
17379 1 0.42267 0.109869 0.0755729
17385 1 0.42267 0.609869 0.0755729
17922 1 0.394511 0.768558 0.125512
17928 1 0.394511 0.268558 0.125512
17929 1 0.408594 0.439483 0.10056
17930 1 0.436721 0.778136 0.100532
17931 1 0.422646 0.107543 0.12551
17935 1 0.408594 0.939483 0.10056
17936 1 0.436721 0.278136 0.100532
17937 1 0.422646 0.607543 0.12551
17381 1 0.450778 0.448097 0.0755187
17382 1 0.478893 0.786629 0.0755044
17387 1 0.450778 0.948097 0.0755187
17388 1 0.478893 0.286629 0.0755044
17932 1 0.464835 0.116857 0.100508
17933 1 0.450771 0.44664 0.125501
17934 1 0.47889 0.785856 0.125495
17938 1 0.464835 0.616857 0.100508
17939 1 0.450771 0.94664 0.125501
17940 1 0.47889 0.285856 0.125495
17941 1 0.49295 0.455741 0.100504
17947 1 0.49295 0.955741 0.100504
18437 3 0.112977 0.387776 0.17526
18443 3 0.112977 0.887776 0.17526
18438 3 0.141124 0.72403 0.17526
18444 3 0.141124 0.224031 0.17526
18445 3 0.155198 0.395172 0.15028
18446 3 0.183345 0.731839 0.15028
18447 1 0.169226 0.0594634 0.175332
18451 3 0.155198 0.895173 0.15028
18452 3 0.183345 0.23184 0.15028
18453 1 0.169226 0.559463 0.175332
18448 1 0.211657 0.0692734 0.150558
18449 1 0.197538 0.397338 0.175551
18450 1 0.225658 0.734593 0.175481
18454 1 0.211657 0.569273 0.150558
18455 1 0.197538 0.897338 0.175551
18456 1 0.225658 0.234593 0.175481
18457 1 0.239736 0.405938 0.150504
18459 1 0.253781 0.071829 0.175433
18463 1 0.239736 0.905938 0.150504
18465 1 0.253781 0.571829 0.175433
18458 1 0.267858 0.743646 0.150485
18460 1 0.29601 0.0815975 0.150485
18461 1 0.281915 0.409601 0.175419
18462 1 0.310055 0.747773 0.175415
18464 1 0.267858 0.243646 0.150485
18466 1 0.29601 0.581598 0.150485
18467 1 0.281915 0.909601 0.175419
18468 1 0.310055 0.247773 0.175415
18469 1 0.324156 0.419861 0.150476
18470 1 0.352293 0.758332 0.150466
18471 1 0.338199 0.0863219 0.175416
18472 1 0.380428 0.0971656 0.150469
18473 1 0.366339 0.425264 0.175421
18475 1 0.324156 0.919861 0.150476
18476 1 0.352293 0.258332 0.150466
18477 1 0.338199 0.586322 0.175416
18478 1 0.380428 0.597166 0.150469
18479 1 0.366339 0.925264 0.175421
18474 1 0.394479 0.764639 0.175431
18480 1 0.394479 0.264639 0.175431
18481 1 0.408565 0.436367 0.150477
18482 1 0.436698 0.775837 0.150481
18483 1 0.422617 0.104406 0.175444
18487 1 0.408565 0.936367 0.150477
18488 1 0.436698 0.275837 0.150481
18489 1 0.422617 0.604406 0.175444
18484 1 0.464825 0.115475 0.150482
18485 1 0.450752 0.444472 0.175455
18486 1 0.478884 0.78474 0.175464
18490 1 0.464825 0.615475 0.150482
18491 1 0.450752 0.944472 0.175455
18492 1 0.478884 0.28474 0.175464
18493 1 0.492949 0.45523 0.150486
18499 1 0.492949 0.95523 0.150486
18986 3 0.0989034 0.716707 0.20024
18987 3 0.0848298 0.0455861 0.22522
18988 3 0.127051 0.0527858 0.20024
18989 3 0.112977 0.381465 0.22522
18992 3 0.0989034 0.216707 0.20024
18993 3 0.0848298 0.545586 0.22522
18994 3 0.127051 0.552785 0.20024
18995 3 0.112977 0.881465 0.22522
18990 1 0.141338 0.717694 0.225481
18996 1 0.141338 0.217694 0.225481
18997 1 0.155386 0.389603 0.200492
18998 1 0.183453 0.725601 0.200444
18999 1 0.169411 0.0540908 0.225413
19003 1 0.155386 0.889603 0.200492
19004 1 0.183453 0.225601 0.200444
19005 1 0.169411 0.554091 0.225413
19000 1 0.211567 0.0626427 0.200418
19001 1 0.197508 0.39055 0.225366
19002 1 0.225622 0.727537 0.22534
19006 1 0.211567 0.562643 0.200418
19007 1 0.197508 0.89055 0.225366
19008 1 0.225622 0.227537 0.22534
19009 1 0.239703 0.39985 0.200394
19011 1 0.253744 0.0648561 0.225316
19015 1 0.239703 0.89985 0.200394
19017 1 0.253744 0.564856 0.225316
19010 1 0.267828 0.73735 0.200365
19012 1 0.295962 0.0753294 0.200355
19013 1 0.281871 0.402608 0.225301
19014 1 0.310003 0.740915 0.225296
19016 1 0.267828 0.23735 0.200365
19018 1 0.295962 0.575329 0.200355
19019 1 0.281871 0.902608 0.225301
19020 1 0.310003 0.240915 0.225296
19021 1 0.324101 0.41382 0.200357
19022 1 0.352243 0.752803 0.200363
19023 1 0.338141 0.0798114 0.225301
19024 1 0.380385 0.0923 0.200377
19025 1 0.366284 0.419326 0.225314
19027 1 0.324101 0.91382 0.200357
19028 1 0.352243 0.252803 0.200363
19029 1 0.338141 0.579811 0.225301
19030 1 0.380385 0.5923 0.200377
19031 1 0.366284 0.919326 0.225314
19026 1 0.394431 0.759481 0.225335
19032 1 0.394431 0.259481 0.225335
19033 1 0.408529 0.432307 0.200395
19034 1 0.436671 0.772758 0.200415
19035 1 0.422579 0.100246 0.225361
19039 1 0.408529 0.932307 0.200395
19040 1 0.436671 0.272758 0.200415
19041 1 0.422579 0.600246 0.225361
19036 1 0.464811 0.113553 0.200432
19037 1 0.450727 0.441536 0.225387
19038 1 0.478874 0.783212 0.225406
19042 1 0.464811 0.613553 0.200432
19043 1 0.450727 0.941536 0.225387
19044 1 0.478874 0.283212 0.225406
19045 1 0.492949 0.454561 0.200443
19051 1 0.492949 0.954561 0.200443
19530 3 0.0566827 0.703298 0.27518
19536 3 0.0566827 0.203298 0.27518
20080 3 0.0426091 0.0321873 0.30016
20086 3 0.0426091 0.532187 0.30016
19537 3 0.0707563 0.37444 0.2502
19538 3 0.0989034 0.7101 0.2502
19539 3 0.0848298 0.0387234 0.27518
19540 1 0.1272 0.0458732 0.25032
19541 1 0.113153 0.374169 0.275253
19543 3 0.0707563 0.87444 0.2502
19544 3 0.0989034 0.210101 0.2502
19545 3 0.0848298 0.538723 0.27518
19546 1 0.1272 0.545873 0.25032
19547 1 0.113153 0.874169 0.275253
20089 3 0.0707563 0.367366 0.30016
20090 1 0.0992319 0.702301 0.300217
20092 1 0.127225 0.0376994 0.300195
20095 3 0.0707563 0.867367 0.30016
20096 1 0.0992319 0.202301 0.300217
20098 1 0.127225 0.537699 0.300195
19542 1 0.141235 0.709941 0.275248
19548 1 0.141235 0.209941 0.275248
19549 1 0.155312 0.382159 0.250342
19550 1 0.183439 0.718473 0.250328
19551 1 0.16936 0.046131 0.275266
19555 1 0.155312 0.882159 0.250342
19556 1 0.183439 0.218473 0.250328
19557 1 0.16936 0.546131 0.275266
20101 1 0.155308 0.373588 0.300205
20102 1 0.183402 0.709792 0.300204
20107 1 0.155308 0.873588 0.300205
20108 1 0.183402 0.209792 0.300204
19552 1 0.211547 0.0550916 0.250293
19553 1 0.197471 0.38253 0.27525
19554 1 0.225582 0.719249 0.275228
19558 1 0.211547 0.555092 0.250293
19559 1 0.197471 0.88253 0.27525
19560 1 0.225582 0.219249 0.275228
19561 1 0.239662 0.392121 0.25027
19563 1 0.253693 0.0564311 0.275207
19567 1 0.239662 0.892121 0.25027
19569 1 0.253693 0.556431 0.275207
20104 1 0.211506 0.0462579 0.300189
20110 1 0.211506 0.546258 0.300189
20113 1 0.23961 0.38309 0.300168
20119 1 0.23961 0.88309 0.300168
19562 1 0.267781 0.729628 0.250252
19564 1 0.295905 0.0676705 0.25024
19565 1 0.281809 0.394145 0.275189
19566 1 0.309933 0.732496 0.275179
19568 1 0.267781 0.229628 0.250252
19570 1 0.295905 0.56767 0.25024
19571 1 0.281809 0.894145 0.275189
19572 1 0.309933 0.232496 0.275179
20114 1 0.267718 0.72041 0.300146
20116 1 0.295832 0.0583409 0.300128
20120 1 0.267718 0.22041 0.300146
20122 1 0.295832 0.558341 0.300128
19573 1 0.324037 0.40635 0.250238
19574 1 0.352177 0.745739 0.250246
19575 1 0.338066 0.0716018 0.275179
19576 1 0.380324 0.0858949 0.250266
19577 1 0.366209 0.411575 0.275191
19579 1 0.324037 0.90635 0.250238
19580 1 0.352177 0.245739 0.250246
19581 1 0.338066 0.571602 0.275179
19582 1 0.380324 0.585895 0.250266
19583 1 0.366209 0.911575 0.275191
20125 1 0.323955 0.397019 0.300118
20126 1 0.35209 0.736604 0.300118
20128 1 0.380237 0.0772774 0.300134
20131 1 0.323955 0.897019 0.300118
20132 1 0.35209 0.236604 0.300118
20134 1 0.380237 0.577277 0.300134
20144 1 0.436571 0.262452 0.300208
20143 1 0.408398 0.919201 0.300165
19578 1 0.394362 0.752515 0.275216
19584 1 0.394362 0.252515 0.275216
19585 1 0.408476 0.426847 0.250294
19586 1 0.436632 0.768553 0.250327
19587 1 0.422523 0.0944682 0.275252
19591 1 0.408476 0.926847 0.250294
19592 1 0.436632 0.268553 0.250327
19593 1 0.422523 0.594468 0.275252
20137 1 0.408398 0.419202 0.300165
20138 1 0.436571 0.762452 0.300208
20146 1 0.46475 0.606914 0.300252
19588 1 0.464788 0.110886 0.250356
19589 1 0.450688 0.437374 0.275291
19590 1 0.478856 0.781018 0.275322
19594 1 0.464788 0.610886 0.250356
19595 1 0.450688 0.937374 0.275291
19596 1 0.478856 0.281018 0.275322
20140 1 0.46475 0.106914 0.300252
19597 1 0.492945 0.453639 0.250374
19603 1 0.492945 0.953639 0.250374
20149 1 0.492933 0.452248 0.300279
20155 1 0.492933 0.952248 0.300279
20640 3 0.0566827 0.188281 0.3751
20639 3 0.0285356 0.853728 0.3751
20638 3 0.0426091 0.52484 0.35012
20634 3 0.0566827 0.68828 0.3751
20633 3 0.0285356 0.353727 0.3751
20632 3 0.0426091 0.0248408 0.35012
20082 3 0.0566827 0.696062 0.32514
20088 3 0.0566827 0.196063 0.32514
20651 1 0.113093 0.857208 0.375086
20650 1 0.127194 0.529114 0.35014
20649 1 0.0849831 0.522571 0.375063
20648 1 0.0991175 0.194044 0.350126
20647 1 0.0708388 0.859908 0.350027
20645 1 0.113093 0.357208 0.375086
20644 1 0.127194 0.0291142 0.35014
20643 1 0.0849831 0.022571 0.375063
20642 1 0.0991175 0.694044 0.350126
20641 1 0.0708388 0.359908 0.350027
20091 1 0.0851439 0.0302636 0.325174
20093 1 0.113206 0.365684 0.325173
20097 1 0.085144 0.530264 0.325174
20099 1 0.113206 0.865684 0.325173
20661 1 0.16931 0.527385 0.375096
20660 1 0.183373 0.20022 0.350124
20659 1 0.15528 0.864505 0.350135
20655 1 0.16931 0.0273847 0.375096
20654 1 0.183373 0.70022 0.350124
20653 1 0.15528 0.364505 0.350135
20652 1 0.141208 0.192135 0.375101
20646 1 0.141208 0.692135 0.375101
20094 1 0.141269 0.70122 0.32517
20100 1 0.141269 0.20122 0.32517
20103 1 0.169343 0.037052 0.325165
20109 1 0.169343 0.537052 0.325165
20673 1 0.253593 0.535062 0.375036
20671 1 0.239562 0.872642 0.350084
20667 1 0.253593 0.035062 0.375036
20665 1 0.239562 0.372642 0.350084
20664 1 0.225501 0.198784 0.375062
20663 1 0.197407 0.862917 0.375082
20662 1 0.211466 0.536242 0.350107
20658 1 0.225501 0.698784 0.375062
20657 1 0.197407 0.362917 0.375082
20656 1 0.211466 0.0362418 0.350107
20105 1 0.197437 0.3732 0.325154
20106 1 0.225534 0.709661 0.325135
20111 1 0.197437 0.8732 0.325154
20112 1 0.225534 0.209661 0.325135
20115 1 0.253635 0.0465457 0.325112
20121 1 0.253635 0.546546 0.325112
20676 1 0.30978 0.209347 0.374976
20675 1 0.281686 0.871862 0.375007
20674 1 0.295759 0.54702 0.350031
20672 1 0.267658 0.209523 0.350058
20670 1 0.30978 0.709347 0.374976
20669 1 0.281686 0.371862 0.375007
20668 1 0.295759 0.0470204 0.350031
20666 1 0.267658 0.709523 0.350058
20117 1 0.281739 0.383981 0.325087
20118 1 0.309851 0.722114 0.325067
20123 1 0.281739 0.883981 0.325087
20124 1 0.309851 0.222115 0.325067
20687 1 0.365992 0.88742 0.374925
20686 1 0.38012 0.565415 0.349987
20685 1 0.33788 0.547751 0.374947
20684 1 0.351985 0.224671 0.34999
20683 1 0.323866 0.885317 0.350006
20681 1 0.365992 0.38742 0.374925
20680 1 0.38012 0.0654147 0.349987
20679 1 0.33788 0.0477509 0.374947
20678 1 0.351985 0.724671 0.34999
20677 1 0.323866 0.385317 0.350006
20127 1 0.337972 0.0611292 0.325054
20129 1 0.366108 0.401259 0.325054
20133 1 0.337972 0.561129 0.325054
20135 1 0.366108 0.901259 0.325054
20697 1 0.422288 0.572718 0.374929
20696 1 0.436466 0.252876 0.350047
20695 1 0.408279 0.907993 0.350005
20691 1 0.422288 0.0727181 0.374929
20690 1 0.436466 0.752877 0.350047
20689 1 0.408279 0.407993 0.350005
20688 1 0.394124 0.228837 0.374915
20682 1 0.394124 0.728837 0.374915
20145 1 0.422433 0.585978 0.32511
20130 1 0.394261 0.742785 0.325072
20136 1 0.394261 0.242785 0.325072
20139 1 0.422433 0.0859778 0.32511
20700 1 0.478752 0.27121 0.375035
20699 1 0.450498 0.92001 0.374972
20698 1 0.464681 0.600321 0.350104
20694 1 0.478752 0.771209 0.375035
20693 1 0.450498 0.42001 0.374972
20692 1 0.464681 0.100322 0.350104
20148 1 0.478822 0.277536 0.325205
20147 1 0.450622 0.93096 0.32516
20142 1 0.478822 0.777536 0.325205
20141 1 0.450622 0.430959 0.32516
20707 1 0.49291 0.949879 0.350145
20701 1 0.49291 0.449879 0.350145
21192 1 0.0569844 0.178923 0.425123
21191 3 0.0285356 0.845942 0.42506
21190 3 0.0426091 0.51703 0.40008
21188 3 0.014462 0.182748 0.40008
21186 1 0.0569844 0.678923 0.425123
21185 3 0.0285356 0.345942 0.42506
21184 3 0.0426091 0.0170303 0.40008
21182 3 0.014462 0.682747 0.40008
21203 1 0.113138 0.847593 0.425044
21202 1 0.127162 0.519741 0.400063
21201 1 0.0850669 0.513364 0.42507
21200 1 0.0990729 0.185078 0.400047
21199 1 0.0710866 0.850834 0.400113
21197 1 0.113138 0.347593 0.425044
21196 1 0.127162 0.019741 0.400063
21195 1 0.0850669 0.0133638 0.42507
21194 1 0.0990729 0.685078 0.400047
21193 1 0.0710866 0.350834 0.400113
21213 1 0.169316 0.516699 0.425036
21212 1 0.183356 0.18972 0.400059
21211 1 0.155258 0.854639 0.400066
21207 1 0.169316 0.0166987 0.425036
21206 1 0.183356 0.68972 0.400059
21205 1 0.155258 0.354639 0.400066
21204 1 0.141219 0.182052 0.425041
21198 1 0.141219 0.682052 0.425041
21225 1 0.253599 0.52185 0.424981
21223 1 0.239543 0.860701 0.40002
21219 1 0.253599 0.0218502 0.424981
21217 1 0.239543 0.360701 0.40002
21216 1 0.225507 0.186531 0.425005
21215 1 0.197413 0.851504 0.425024
21214 1 0.211451 0.525048 0.400043
21210 1 0.225507 0.686531 0.425005
21209 1 0.197413 0.351504 0.425024
21208 1 0.211451 0.0250484 0.400043
21228 1 0.309767 0.193815 0.424921
21227 1 0.281685 0.857559 0.424953
21226 1 0.29572 0.533378 0.39996
21224 1 0.267633 0.196763 0.399992
21222 1 0.309767 0.693815 0.424921
21221 1 0.281685 0.357559 0.424953
21220 1 0.29572 0.033378 0.39996
21218 1 0.267633 0.696763 0.399992
21239 1 0.36592 0.869033 0.424845
21238 1 0.379996 0.549031 0.399861
21237 1 0.337844 0.530849 0.424885
21236 1 0.351896 0.209135 0.399892
21235 1 0.323807 0.870733 0.399926
21233 1 0.36592 0.369033 0.424845
21232 1 0.379996 0.0490318 0.399861
21231 1 0.337844 0.0308486 0.424885
21230 1 0.351896 0.709135 0.399892
21229 1 0.323807 0.370733 0.399926
21249 1 0.422098 0.551552 0.424759
21248 1 0.436282 0.236651 0.399835
21247 1 0.408118 0.89112 0.399839
21243 1 0.422098 0.0515506 0.424759
21242 1 0.436282 0.736652 0.399835
21241 1 0.408118 0.39112 0.399839
21240 1 0.394 0.208933 0.424802
21234 1 0.394 0.708933 0.424802
21252 1 0.478557 0.256756 0.424751
21251 1 0.450246 0.89923 0.424711
21250 1 0.464526 0.587682 0.399877
21246 1 0.478557 0.756755 0.424751
21245 1 0.450246 0.399229 0.424711
21244 1 0.464526 0.0876828 0.399877
21259 1 0.492854 0.945025 0.399947
21253 1 0.492854 0.445026 0.399947
21744 1 0.0570084 0.170933 0.475004
21743 3 0.0285356 0.837906 0.47502
21742 3 0.0426091 0.508872 0.45004
21741 3 0.00038843 0.504318 0.47502
21740 3 0.014462 0.175035 0.45004
21738 1 0.0570084 0.670933 0.475004
21737 3 0.0285356 0.337906 0.47502
21736 3 0.0426091 0.0088729 0.45004
21735 3 0.00038843 0.00431855 0.47502
21734 3 0.014462 0.675034 0.45004
22286 3 0.014462 0.667161 0.5
22288 1 0.0429272 0.999906 0.499997
22292 3 0.014462 0.167161 0.5
22294 1 0.0429272 0.499906 0.499997
21755 1 0.113148 0.83786 0.475009
21754 1 0.127184 0.509804 0.450024
21753 1 0.0850482 0.50429 0.475008
21752 1 0.0990907 0.175872 0.450037
21751 1 0.0709882 0.842117 0.450045
21749 1 0.113148 0.33786 0.475009
21748 1 0.127184 0.00980356 0.450024
21747 1 0.0850482 0.00429048 0.475008
21746 1 0.0990907 0.675872 0.450037
21745 1 0.0709882 0.342117 0.450045
22298 1 0.0991139 0.666225 0.499993
22300 1 0.127214 0.999526 0.499982
22304 1 0.0991139 0.166225 0.499993
22306 1 0.127214 0.499526 0.499982
22303 1 0.0710168 0.833064 0.5
22297 1 0.0710168 0.333064 0.5
21765 1 0.169355 0.505349 0.474987
21764 1 0.183383 0.178243 0.450005
21763 1 0.155283 0.843961 0.450016
21759 1 0.169355 0.00534934 0.474987
21758 1 0.183383 0.678243 0.450005
21757 1 0.155283 0.343961 0.450016
21756 1 0.14125 0.171569 0.474999
21750 1 0.14125 0.671569 0.474999
22309 1 0.155326 0.332872 0.499969
22310 1 0.183438 0.666203 0.499955
22315 1 0.155326 0.832872 0.499969
22316 1 0.183438 0.166203 0.499955
21777 1 0.253666 0.50709 0.474939
21775 1 0.239578 0.84725 0.449971
21771 1 0.253666 0.00708987 0.474939
21769 1 0.239578 0.34725 0.449971
21768 1 0.225564 0.173103 0.474957
21767 1 0.19746 0.839195 0.474973
21766 1 0.211482 0.51266 0.44999
21762 1 0.225564 0.673103 0.474957
21761 1 0.19746 0.339195 0.474973
21760 1 0.211482 0.0126598 0.44999
22312 1 0.21155 0.999504 0.499941
22318 1 0.21155 0.499504 0.499941
22321 1 0.239661 0.332754 0.499926
22327 1 0.239661 0.832754 0.499926
21780 1 0.309852 0.175466 0.474897
21779 1 0.281762 0.841186 0.474919
21778 1 0.295757 0.517215 0.449921
21776 1 0.26767 0.182071 0.449947
21774 1 0.309852 0.675466 0.474897
21773 1 0.281762 0.341186 0.474919
21772 1 0.295757 0.0172155 0.449921
21770 1 0.26767 0.682071 0.449947
22322 1 0.267769 0.665935 0.49991
22324 1 0.295874 0.999032 0.499895
22328 1 0.267769 0.165935 0.49991
22330 1 0.295874 0.499033 0.499895
21791 1 0.365999 0.845128 0.474845
21790 1 0.379964 0.52674 0.449814
21789 1 0.337932 0.51005 0.474872
21788 1 0.351904 0.189217 0.449855
21787 1 0.323835 0.85285 0.449891
21785 1 0.365999 0.345128 0.474845
21784 1 0.379963 0.0267397 0.449814
21783 1 0.337932 0.0100498 0.474872
21782 1 0.351904 0.689218 0.449856
21781 1 0.323835 0.35285 0.449891
22333 1 0.323973 0.332045 0.49988
22334 1 0.352064 0.664943 0.499868
22336 1 0.380143 0.997623 0.49986
22339 1 0.323973 0.832045 0.49988
22340 1 0.352064 0.164943 0.499868
22342 1 0.380143 0.497622 0.49986
21801 1 0.422047 0.518285 0.474766
21800 1 0.436057 0.208768 0.449686
21799 1 0.408013 0.866137 0.449761
21795 1 0.422047 0.0182854 0.474766
21794 1 0.436057 0.708768 0.449686
21793 1 0.408013 0.366138 0.449761
21792 1 0.394044 0.181017 0.474812
21786 1 0.394044 0.681016 0.474812
22345 1 0.408202 0.32978 0.499858
22346 1 0.436237 0.660546 0.499875
22351 1 0.408202 0.82978 0.499858
22352 1 0.436237 0.160544 0.499874
21805 1 0.492656 0.429589 0.449641
21811 1 0.492656 0.929589 0.449641
21804 1 0.478062 0.20865 0.474539
21803 1 0.450011 0.858206 0.474699
21802 1 0.464171 0.559171 0.449563
21798 1 0.478062 0.70865 0.474539
21797 1 0.450011 0.358204 0.474699
21796 1 0.464171 0.0591726 0.449563
22348 1 0.464318 0.987554 0.499944
22354 1 0.464318 0.487555 0.499944
22287 3 0.00038843 0.996641 0.52498
22289 3 0.0285356 0.329775 0.52498
22290 1 0.0570131 0.662286 0.524996
22293 3 0.00038843 0.49664 0.52498
22295 3 0.0285356 0.829776 0.52498
22296 1 0.0570131 0.162286 0.524996
22838 3 0.014462 0.659278 0.54996
22840 3 0.0426091 0.992165 0.54996
22844 3 0.014462 0.159278 0.54996
22846 3 0.0426091 0.492164 0.54996
22299 1 0.0850621 0.994965 0.524987
22301 1 0.113175 0.327876 0.524966
22305 1 0.0850621 0.494965 0.524987
22307 1 0.113175 0.827876 0.524966
22849 1 0.071006 0.324239 0.549958
22850 1 0.0991304 0.656666 0.549947
22852 1 0.127253 0.989216 0.549931
22855 1 0.071006 0.824239 0.549958
22856 1 0.0991304 0.156666 0.549947
22858 1 0.127253 0.489216 0.549931
22302 1 0.141291 0.66083 0.524951
22308 1 0.141291 0.16083 0.524951
22311 1 0.16941 0.993723 0.524935
22317 1 0.16941 0.493723 0.524935
22861 1 0.155378 0.321754 0.549914
22862 1 0.183502 0.654133 0.549899
22867 1 0.155378 0.821754 0.549914
22868 1 0.183502 0.154133 0.549899
22313 1 0.19753 0.32651 0.524921
22314 1 0.22565 0.659147 0.524907
22319 1 0.19753 0.82651 0.524921
22320 1 0.22565 0.159147 0.524907
22323 1 0.253769 0.991582 0.524895
22329 1 0.253769 0.491582 0.524895
22864 1 0.211628 0.986289 0.549886
22870 1 0.211628 0.486289 0.549886
22873 1 0.239755 0.318157 0.549875
22879 1 0.239755 0.818157 0.549875
22325 1 0.281886 0.323746 0.524884
22326 1 0.310001 0.655547 0.524877
22331 1 0.281886 0.823746 0.524884
22332 1 0.310001 0.155548 0.524877
22874 1 0.267881 0.649634 0.549867
22876 1 0.296007 0.980598 0.549863
22880 1 0.267881 0.149634 0.549867
22882 1 0.296007 0.480598 0.549863
22335 1 0.338113 0.986827 0.524874
22337 1 0.366222 0.317265 0.524881
22341 1 0.338113 0.486827 0.524874
22343 1 0.366222 0.817265 0.524881
22885 1 0.324132 0.310839 0.549866
22886 1 0.352254 0.640007 0.549881
22888 1 0.380373 0.967466 0.549915
22891 1 0.324132 0.810839 0.549866
22892 1 0.352254 0.140007 0.549881
22894 1 0.380373 0.467467 0.549915
22338 1 0.394325 0.646192 0.524905
22344 1 0.394325 0.146192 0.524905
22347 1 0.422427 0.972191 0.524966
22353 1 0.422427 0.472192 0.524966
22897 1 0.408487 0.29208 0.549987
22898 1 0.4366 0.611835 0.550126
22903 1 0.408487 0.792079 0.549987
22904 1 0.4366 0.111836 0.550126
22349 1 0.450549 0.291953 0.525099
22350 1 0.478689 0.596226 0.525456
22355 1 0.450549 0.791952 0.525099
22356 1 0.478689 0.0962275 0.525456
22900 1 0.464708 0.92336 0.550415
22906 1 0.464708 0.423359 0.550415
22909 1 0.492867 0.22557 0.550779
22915 1 0.492867 0.725571 0.550779
22357 1 0.492589 0.291794 0.500223
22363 1 0.492589 0.791794 0.500223
22841 3 0.0285356 0.321718 0.57494
22842 1 0.0570042 0.65305 0.574888
22847 3 0.0285356 0.821719 0.57494
22848 1 0.0570043 0.15305 0.574888
23390 3 0.014462 0.651537 0.59992
23392 3 0.0426091 0.983974 0.59992
23393 3 0.0285356 0.313894 0.6249
23394 1 0.0567536 0.646412 0.624957
23396 3 0.014462 0.151538 0.59992
23398 3 0.0426091 0.483974 0.59992
23399 3 0.0285356 0.813894 0.6249
23400 1 0.0567536 0.146412 0.624957
22851 1 0.0851053 0.985651 0.574932
22853 1 0.11322 0.31802 0.574912
22857 1 0.0851053 0.485651 0.574932
22859 1 0.11322 0.81802 0.574912
23401 1 0.0710946 0.315447 0.599925
23402 1 0.0991647 0.647335 0.5999
23403 1 0.0851197 0.97727 0.624875
23404 1 0.127295 0.979294 0.599872
23405 1 0.113248 0.308842 0.624847
23407 1 0.0710946 0.815447 0.599925
23408 1 0.0991647 0.147335 0.5999
23409 1 0.0851197 0.47727 0.624875
23410 1 0.127295 0.479294 0.599872
23411 1 0.113248 0.808842 0.624847
22854 1 0.141339 0.650268 0.574893
22860 1 0.141339 0.150268 0.574893
22863 1 0.169467 0.98234 0.574876
22869 1 0.169467 0.48234 0.574876
23406 1 0.141372 0.640379 0.624831
23412 1 0.141372 0.140379 0.624831
23413 1 0.155423 0.311106 0.599853
23414 1 0.183553 0.642647 0.599839
23415 1 0.169502 0.971738 0.624816
23419 1 0.155423 0.811106 0.599853
23420 1 0.183553 0.142647 0.599839
23421 1 0.169502 0.471738 0.624816
22865 1 0.197596 0.314144 0.574862
22866 1 0.225727 0.645606 0.574851
22871 1 0.197596 0.814144 0.574862
22872 1 0.225727 0.145606 0.574851
22875 1 0.253859 0.976619 0.574845
22881 1 0.253859 0.476619 0.574845
23416 1 0.211686 0.973837 0.599827
23417 1 0.197634 0.302752 0.624802
23418 1 0.225768 0.633313 0.624793
23422 1 0.211686 0.473837 0.599827
23423 1 0.197634 0.802752 0.624802
23424 1 0.225768 0.133313 0.624793
23425 1 0.23982 0.30456 0.59982
23427 1 0.253903 0.963287 0.624792
23431 1 0.23982 0.80456 0.59982
23433 1 0.253903 0.463287 0.624792
22877 1 0.281991 0.307047 0.574843
22878 1 0.310121 0.636697 0.574849
22883 1 0.281991 0.807047 0.574843
22884 1 0.310121 0.136696 0.574849
23426 1 0.267954 0.634681 0.599818
23428 1 0.296088 0.964037 0.599826
23429 1 0.282037 0.292537 0.624799
23430 1 0.310168 0.620881 0.624818
23432 1 0.267954 0.134681 0.599818
23434 1 0.296088 0.464037 0.599826
23435 1 0.282037 0.792537 0.624799
23436 1 0.310168 0.120881 0.624818
22887 1 0.338249 0.965253 0.574867
22889 1 0.366373 0.292228 0.574905
22893 1 0.338249 0.465253 0.574867
22895 1 0.366373 0.792228 0.574905
23437 1 0.324218 0.292379 0.599845
23438 1 0.352343 0.619352 0.599883
23439 1 0.338293 0.94807 0.624854
23440 1 0.380461 0.944452 0.599949
23441 1 0.366411 0.273778 0.624914
23443 1 0.324218 0.792379 0.599845
23444 1 0.352343 0.119352 0.599883
23445 1 0.338293 0.44807 0.624854
23446 1 0.380461 0.444452 0.599949
23447 1 0.366411 0.773778 0.624914
22890 1 0.394491 0.616842 0.574976
22896 1 0.394491 0.116842 0.574976
22899 1 0.422601 0.937975 0.575099
22905 1 0.422601 0.437974 0.575099
23442 1 0.394522 0.597647 0.625003
23448 1 0.394522 0.0976471 0.625003
23449 1 0.40857 0.267052 0.600054
23450 1 0.436675 0.586553 0.60021
23451 1 0.422629 0.919386 0.625126
23455 1 0.40857 0.767052 0.600054
23456 1 0.436675 0.0865521 0.60021
23457 1 0.422629 0.419386 0.625126
22901 1 0.450705 0.254251 0.575307
22902 1 0.47883 0.565613 0.575565
22907 1 0.450705 0.754252 0.575307
22908 1 0.47883 0.0656123 0.575565
23452 1 0.464791 0.903018 0.600397
23453 1 0.450742 0.239057 0.625272
23454 1 0.478875 0.557303 0.625395
23458 1 0.464791 0.403018 0.600397
23459 1 0.450742 0.739057 0.625272
23460 1 0.478875 0.0573032 0.625395
23461 1 0.492943 0.217756 0.600525
23467 1 0.492943 0.717756 0.600525
23944 3 0.0426091 0.976113 0.64988
23945 3 0.0285356 0.306433 0.67486
23946 3 0.0566827 0.638216 0.67486
23950 3 0.0426091 0.476113 0.64988
23951 3 0.0285356 0.806434 0.67486
23952 3 0.0566827 0.138216 0.67486
23953 1 0.0711037 0.306855 0.649824
23954 1 0.0992149 0.638671 0.649824
23955 1 0.0851941 0.969196 0.674789
23956 1 0.127322 0.970124 0.649812
23957 1 0.113232 0.300383 0.674802
23959 1 0.0711037 0.806855 0.649824
23960 1 0.0992149 0.138671 0.649824
23961 1 0.0851941 0.469196 0.674789
23962 1 0.127322 0.470124 0.649812
23963 1 0.113232 0.800383 0.674802
23958 1 0.141356 0.631502 0.674778
23964 1 0.141356 0.131502 0.674778
23965 1 0.155437 0.301351 0.649796
23966 1 0.183569 0.632275 0.649778
23967 1 0.169489 0.962357 0.674755
23971 1 0.155437 0.801351 0.649796
23972 1 0.183569 0.132275 0.649778
23973 1 0.169489 0.462357 0.674755
23968 1 0.211705 0.962755 0.649766
23969 1 0.19763 0.292802 0.674738
23970 1 0.225769 0.622726 0.674733
23974 1 0.211705 0.462755 0.649766
23975 1 0.19763 0.792802 0.674738
23976 1 0.225769 0.122726 0.674733
23977 1 0.23984 0.292681 0.649763
23979 1 0.253904 0.952047 0.674738
23983 1 0.23984 0.792681 0.649763
23985 1 0.253904 0.452047 0.674738
23978 1 0.267975 0.62194 0.64977
23980 1 0.296105 0.950395 0.649788
23981 1 0.282035 0.28067 0.674754
23982 1 0.310161 0.608472 0.674784
23984 1 0.267975 0.12194 0.64977
23986 1 0.296105 0.450395 0.649788
23987 1 0.282035 0.78067 0.674754
23988 1 0.310161 0.108472 0.674784
23989 1 0.324231 0.277881 0.649821
23990 1 0.35235 0.604188 0.649873
23991 1 0.338283 0.935316 0.67483
23992 1 0.380463 0.929093 0.649949
23993 1 0.366399 0.261063 0.674894
23995 1 0.324231 0.777881 0.649821
23996 1 0.35235 0.104188 0.649873
23997 1 0.338283 0.435316 0.67483
23998 1 0.380463 0.429093 0.649949
23999 1 0.366399 0.761063 0.674894
23994 1 0.394512 0.585633 0.674978
24000 1 0.394512 0.0856333 0.674978
24001 1 0.408573 0.252451 0.65005
24002 1 0.436686 0.5743 0.650168
24003 1 0.422627 0.909054 0.675076
24007 1 0.408573 0.752451 0.65005
24008 1 0.436686 0.0743 0.650168
24009 1 0.422627 0.409054 0.675076
24004 1 0.464812 0.894982 0.650278
24005 1 0.450749 0.231519 0.675172
24006 1 0.478884 0.553363 0.675244
24010 1 0.464812 0.394982 0.650278
24011 1 0.450749 0.731519 0.675172
24012 1 0.478884 0.0533624 0.675244
24013 1 0.492953 0.215019 0.650345
24019 1 0.492953 0.715019 0.650345
24496 3 0.0426091 0.968704 0.69984
24498 3 0.0566827 0.630908 0.72482
24502 3 0.0426091 0.468703 0.69984
24504 3 0.0566827 0.130909 0.72482
25066 1 0.127219 0.45482 0.749649
25064 3 0.0989034 0.124111 0.7498
25063 3 0.0707563 0.793076 0.7498
25060 1 0.127219 0.95482 0.749649
25058 3 0.0989034 0.624111 0.7498
25057 3 0.0707563 0.293076 0.7498
24505 3 0.0707563 0.300229 0.69984