ITEM: TIMESTEP
44
ITEM: NUMBER OF ATOMS
2350
ITEM: BOX BOUNDS ss pp ss
-4.1846240876000003e+01 4.0972067143000004e+01
-4.1208122699999999e-01 4.5329187729999996e+00
-4.0744574000000000e+01 4.0071621692000001e+01
ITEM: ATOMS id type xs ys zs
16806 3 0.310007 0.760163 0.0253797
16812 3 0.310007 0.260164 0.0253797
17354 3 0.267786 0.752494 0.0503597
17356 3 0.295933 0.0898591 0.0503597
17360 3 0.267786 0.252494 0.0503597
17362 3 0.295933 0.589859 0.0503597
16815 3 0.338154 0.0976639 0.0253797
16817 3 0.366301 0.435325 0.0253797
16821 3 0.338154 0.597663 0.0253797
16823 3 0.366301 0.935326 0.0253797
17365 3 0.32408 0.427426 0.0503597
17366 3 0.352228 0.765186 0.0503597
17368 1 0.3805 0.103075 0.0504208
17371 3 0.32408 0.927426 0.0503597
17372 3 0.352228 0.265187 0.0503597
17374 1 0.3805 0.603075 0.0504208
16818 3 0.394448 0.773132 0.0253797
16824 3 0.394448 0.273133 0.0253797
16825 3 0.408522 0.442868 0.00039968
16826 3 0.436669 0.780632 0.00039968
16827 3 0.422595 0.111062 0.0253797
16831 3 0.408522 0.942869 0.00039968
16832 3 0.436669 0.280632 0.00039968
16833 3 0.422595 0.611062 0.0253797
17377 1 0.408664 0.442245 0.0506943
17378 1 0.436799 0.779866 0.0507148
17383 1 0.408664 0.942245 0.0506943
17384 1 0.436799 0.279866 0.0507148
16828 3 0.464816 0.118465 0.00039968
16829 3 0.450743 0.449086 0.0253797
16830 3 0.47889 0.787177 0.0253797
16834 3 0.464816 0.618465 0.00039968
16835 3 0.450743 0.949087 0.0253797
16836 3 0.47889 0.287178 0.0253797
17380 1 0.464862 0.117772 0.0505809
17386 1 0.464862 0.617772 0.0505809
16837 3 0.492963 0.45634 0.00039968
16843 3 0.492963 0.956341 0.00039968
17389 1 0.492974 0.456105 0.0505632
17395 1 0.492974 0.956105 0.0505632
17895 3 0.169271 0.0662976 0.1253
17901 3 0.169271 0.566297 0.1253
17346 3 0.225565 0.744778 0.0753397
17352 3 0.225565 0.244778 0.0753397
17355 3 0.253713 0.0819268 0.0753397
17361 3 0.253713 0.581926 0.0753397
17896 3 0.211492 0.0740223 0.10032
17897 3 0.197418 0.403077 0.1253
17898 1 0.225524 0.739058 0.125383
17902 3 0.211492 0.574022 0.10032
17903 3 0.197418 0.903077 0.1253
17904 1 0.225524 0.239058 0.125383
17905 3 0.239639 0.411135 0.10032
17907 1 0.25385 0.0775339 0.125588
17911 3 0.239639 0.911135 0.10032
17913 1 0.25385 0.577534 0.125588
17357 3 0.28186 0.419308 0.0753397
17358 1 0.31009 0.757508 0.0756439
17363 3 0.28186 0.919309 0.0753397
17364 1 0.31009 0.257508 0.075644
17906 1 0.267973 0.748995 0.100556
17908 1 0.296115 0.0865955 0.100674
17909 1 0.281969 0.41531 0.12555
17910 1 0.310128 0.753343 0.125553
17912 1 0.267973 0.248995 0.100556
17914 1 0.296115 0.586595 0.100674
17915 1 0.281969 0.915309 0.12555
17916 1 0.310128 0.253343 0.125553
17367 1 0.338289 0.095074 0.075674
17369 1 0.366414 0.432976 0.0754968
17373 1 0.338289 0.595074 0.075674
17375 1 0.366414 0.932976 0.0754968
17917 1 0.324212 0.424382 0.100582
17918 1 0.352355 0.762578 0.10051
17919 1 0.338267 0.091465 0.125509
17920 1 0.380463 0.100783 0.100495
17921 1 0.366391 0.429878 0.125482
17923 1 0.324212 0.924382 0.100582
17924 1 0.352355 0.262578 0.10051
17925 1 0.338267 0.591465 0.125509
17926 1 0.380463 0.600783 0.100495
17927 1 0.366391 0.929878 0.125482
17370 1 0.394568 0.771577 0.075597
17376 1 0.394568 0.271577 0.075597
17379 1 0.422707 0.110131 0.0756363
17385 1 0.422707 0.610131 0.0756363
17922 1 0.394513 0.76855 0.125495
17928 1 0.394513 0.26855 0.125495
17929 1 0.408602 0.439536 0.100562
17930 1 0.436747 0.77835 0.100579
17931 1 0.422652 0.107627 0.125526
17935 1 0.408602 0.939536 0.100562
17936 1 0.436747 0.27835 0.100579
17937 1 0.422652 0.607627 0.125526
17381 1 0.450828 0.448452 0.0755863
17382 1 0.478926 0.786747 0.0755307
17387 1 0.450828 0.948452 0.0755863
17388 1 0.478926 0.286747 0.0755307
17932 1 0.464867 0.117107 0.100551
17933 1 0.450788 0.446826 0.125532
17934 1 0.47891 0.786037 0.125524
17938 1 0.464867 0.617107 0.100551
17939 1 0.450788 0.946826 0.125532
17940 1 0.47891 0.286037 0.125524
17941 1 0.492974 0.455871 0.100527
17947 1 0.492974 0.955871 0.100527
18438 3 0.141124 0.724156 0.17526
18444 3 0.141124 0.224156 0.17526
18445 3 0.155198 0.39529 0.15028
18446 3 0.183345 0.731956 0.15028
18447 3 0.169271 0.0606774 0.17526
18451 3 0.155198 0.89529 0.15028
18452 3 0.183345 0.231956 0.15028
18453 3 0.169271 0.560677 0.17526
18448 1 0.211677 0.0694068 0.15055
18449 1 0.197601 0.397586 0.17555
18450 1 0.225682 0.734703 0.175481
18454 1 0.211677 0.569407 0.15055
18455 1 0.197601 0.897586 0.17555
18456 1 0.225682 0.234703 0.175481
18457 1 0.23975 0.406044 0.1505
18459 1 0.253792 0.0719261 0.175434
18463 1 0.239749 0.906044 0.1505
18465 1 0.253792 0.571926 0.175434
18458 1 0.267868 0.743723 0.150483
18460 1 0.296019 0.0816622 0.150484
18461 1 0.281922 0.409696 0.175419
18462 1 0.310062 0.74787 0.175411
18464 1 0.267868 0.243723 0.150483
18466 1 0.296019 0.581662 0.150484
18467 1 0.281922 0.909696 0.175419
18468 1 0.310062 0.24787 0.175411
18469 1 0.324166 0.419936 0.15047
18470 1 0.352303 0.758414 0.150451
18471 1 0.338206 0.0864209 0.175408
18472 1 0.380433 0.0972103 0.150454
18473 1 0.366343 0.425342 0.175411
18475 1 0.324166 0.919936 0.15047
18476 1 0.352303 0.258414 0.150451
18477 1 0.338206 0.586421 0.175408
18478 1 0.380433 0.59721 0.150454
18479 1 0.366343 0.925342 0.175411
18474 1 0.394479 0.764689 0.175426
18480 1 0.394479 0.264689 0.175426
18481 1 0.408566 0.436398 0.150475
18482 1 0.436703 0.775928 0.150497
18483 1 0.422618 0.104461 0.17545
18487 1 0.408566 0.936398 0.150475
18488 1 0.436703 0.275928 0.150497
18489 1 0.422618 0.604461 0.17545
18484 1 0.464836 0.115619 0.150506
18485 1 0.450756 0.444568 0.17547
18486 1 0.478891 0.784858 0.175482
18490 1 0.464836 0.615619 0.150506
18491 1 0.450756 0.944568 0.17547
18492 1 0.478891 0.284858 0.175482
18493 1 0.492962 0.455367 0.150507
18499 1 0.492962 0.955367 0.150507
18986 3 0.0989034 0.716837 0.20024
18987 3 0.0848298 0.0457217 0.22522
18988 3 0.127051 0.0529183 0.20024
18989 3 0.112977 0.381604 0.22522
18992 3 0.0989034 0.216837 0.20024
18993 3 0.0848298 0.545721 0.22522
18994 3 0.127051 0.552918 0.20024
18995 3 0.112977 0.881605 0.22522
18990 1 0.141311 0.718371 0.225479
18996 1 0.141311 0.218371 0.225479
18997 1 0.155159 0.388817 0.200358
18998 1 0.183385 0.72581 0.200399
18999 1 0.169382 0.0542369 0.225406
19003 1 0.155159 0.888817 0.200358
19004 1 0.183385 0.22581 0.200399
19005 1 0.169382 0.554237 0.225406
19000 1 0.211541 0.0629129 0.200415
19001 1 0.197461 0.390687 0.225332
19002 1 0.2256 0.727751 0.22533
19006 1 0.211541 0.562913 0.200415
19007 1 0.197461 0.890687 0.225332
19008 1 0.2256 0.227751 0.22533
19009 1 0.239696 0.400042 0.200394
19011 1 0.253733 0.0650481 0.225312
19015 1 0.239696 0.900042 0.200394
19017 1 0.253733 0.565048 0.225312
19010 1 0.267827 0.737503 0.200364
19012 1 0.295964 0.0754619 0.200353
19013 1 0.281866 0.402773 0.225298
19014 1 0.310002 0.741059 0.225293
19016 1 0.267827 0.237503 0.200364
19018 1 0.295964 0.575462 0.200353
19019 1 0.281866 0.902773 0.225298
19020 1 0.310002 0.241059 0.225293
19021 1 0.324104 0.413941 0.200352
19022 1 0.352245 0.752905 0.200357
19023 1 0.338141 0.0799335 0.225296
19024 1 0.380386 0.0923756 0.200372
19025 1 0.366284 0.419426 0.22531
19027 1 0.324104 0.913941 0.200352
19028 1 0.352245 0.252905 0.200357
19029 1 0.338141 0.579934 0.225296
19030 1 0.380386 0.592376 0.200372
19031 1 0.366284 0.919426 0.22531
19026 1 0.394429 0.759558 0.225334
19032 1 0.394429 0.259558 0.225334
19033 1 0.408528 0.432367 0.200396
19034 1 0.436671 0.772826 0.200423
19035 1 0.422577 0.100311 0.225365
19039 1 0.408528 0.932367 0.200396
19040 1 0.436671 0.272826 0.200423
19041 1 0.422577 0.600311 0.225365
19036 1 0.464813 0.113642 0.200445
19037 1 0.450726 0.441606 0.225395
19038 1 0.478875 0.783291 0.225417
19042 1 0.464813 0.613642 0.200445
19043 1 0.450726 0.941606 0.225395
19044 1 0.478875 0.283291 0.225417
19045 1 0.492953 0.454659 0.200457
19051 1 0.492953 0.954659 0.200457
19530 3 0.0566827 0.703442 0.27518
19536 3 0.0566827 0.203443 0.27518
20080 3 0.0426091 0.0323349 0.30016
20086 3 0.0426091 0.532334 0.30016
19537 3 0.0707563 0.37458 0.2502
19538 3 0.0989034 0.710245 0.2502
19539 3 0.0848298 0.0388735 0.27518
19540 1 0.127272 0.0463125 0.250457
19541 1 0.113157 0.374391 0.275288
19543 3 0.0707563 0.874581 0.2502
19544 3 0.0989034 0.210246 0.2502
19545 3 0.0848298 0.538873 0.27518
19546 1 0.127272 0.546312 0.250457
19547 1 0.113157 0.874391 0.275288
20089 3 0.0707563 0.36752 0.30016
20090 1 0.0992309 0.702473 0.300232
20092 1 0.127233 0.0379747 0.300228
20095 3 0.0707563 0.86752 0.30016
20096 1 0.0992309 0.202473 0.300232
20098 1 0.127233 0.537975 0.300228
19542 1 0.141269 0.71043 0.275312
19548 1 0.141269 0.21043 0.275312
19549 1 0.155349 0.38253 0.250383
19550 1 0.183438 0.718677 0.250317
19551 1 0.169386 0.0464684 0.275294
19555 1 0.155349 0.88253 0.250383
19556 1 0.183438 0.218677 0.250317
19557 1 0.169386 0.546468 0.275294
20101 1 0.155329 0.373982 0.300242
20102 1 0.18342 0.710108 0.30022
20107 1 0.155329 0.873982 0.300242
20108 1 0.18342 0.210108 0.30022
19552 1 0.211533 0.0552263 0.250275
19553 1 0.19748 0.382743 0.275249
19554 1 0.22558 0.719397 0.275219
19558 1 0.211533 0.555226 0.250275
19559 1 0.19748 0.882743 0.275249
19560 1 0.22558 0.219397 0.275219
19561 1 0.23965 0.392283 0.250259
19563 1 0.253689 0.0565758 0.275199
19567 1 0.23965 0.892283 0.250259
19569 1 0.253689 0.556576 0.275199
20104 1 0.211515 0.0464657 0.300191
20110 1 0.211515 0.546466 0.300191
20113 1 0.239613 0.383244 0.300164
20119 1 0.239613 0.883244 0.300164
19562 1 0.267773 0.729791 0.250245
19564 1 0.295901 0.0678232 0.250235
19565 1 0.281806 0.394289 0.275183
19566 1 0.309931 0.732631 0.275174
19568 1 0.267773 0.229791 0.250245
19570 1 0.295901 0.567823 0.250235
19571 1 0.281806 0.894289 0.275183
19572 1 0.309931 0.232631 0.275174
20114 1 0.267718 0.720551 0.300141
20116 1 0.295831 0.0584723 0.300124
20120 1 0.267718 0.220551 0.300141
20122 1 0.295831 0.558472 0.300124
19573 1 0.324035 0.406486 0.250234
19574 1 0.352175 0.745854 0.250243
19575 1 0.338064 0.0717217 0.275175
19576 1 0.380322 0.0859873 0.250264
19577 1 0.366207 0.411676 0.275189
19579 1 0.324035 0.906486 0.250234
19580 1 0.352175 0.245854 0.250243
19581 1 0.338064 0.571722 0.275175
19582 1 0.380322 0.585987 0.250264
19583 1 0.366207 0.911676 0.275189
20125 1 0.323954 0.397139 0.300114
20126 1 0.352088 0.736708 0.300116
20128 1 0.380235 0.0773625 0.300133
20131 1 0.323954 0.897139 0.300114
20132 1 0.352088 0.236708 0.300116
20134 1 0.380235 0.577362 0.300133
19578 1 0.394359 0.752594 0.275216
19584 1 0.394359 0.252594 0.275216
19585 1 0.408474 0.426918 0.250295
19586 1 0.43663 0.768617 0.250331
19587 1 0.42252 0.0945325 0.275255
19591 1 0.408474 0.926918 0.250295
19592 1 0.43663 0.268616 0.250331
19593 1 0.42252 0.594533 0.275255
20137 1 0.408396 0.419269 0.300166
20138 1 0.436568 0.762508 0.300212
20143 1 0.408396 0.919269 0.300166
20144 1 0.436568 0.262508 0.300212
20146 1 0.464748 0.606963 0.300258
19588 1 0.464787 0.11095 0.250364
19589 1 0.450686 0.437431 0.275297
19590 1 0.478855 0.781074 0.27533
19594 1 0.464787 0.61095 0.250364
19595 1 0.450686 0.937431 0.275297
19596 1 0.478855 0.281074 0.27533
20140 1 0.464748 0.106963 0.300258
19597 1 0.492944 0.453705 0.250384
19603 1 0.492944 0.953705 0.250384
20149 1 0.492932 0.452292 0.300287
20155 1 0.492932 0.952292 0.300287
20640 3 0.0566827 0.188448 0.3751
20639 3 0.0285356 0.853887 0.3751
20638 3 0.0426091 0.524998 0.35012
20634 3 0.0566827 0.688448 0.3751
20633 3 0.0285356 0.353886 0.3751
20632 3 0.0426091 0.0249989 0.35012
20082 3 0.0566827 0.696219 0.32514
20088 3 0.0566827 0.196219 0.32514
20651 1 0.113094 0.857406 0.375096
20650 1 0.127198 0.529339 0.350156
20649 1 0.0849833 0.522748 0.375068
20648 1 0.0991179 0.194231 0.350135
20647 1 0.0708388 0.860076 0.35003
20645 1 0.113094 0.357406 0.375096
20644 1 0.127198 0.0293393 0.350156
20643 1 0.0849833 0.0227476 0.375068
20642 1 0.0991179 0.694231 0.350135
20641 1 0.0708388 0.360076 0.35003
20091 1 0.0851432 0.0304342 0.32518
20093 1 0.113208 0.365894 0.32519
20097 1 0.0851432 0.530434 0.32518
20099 1 0.113208 0.865894 0.32519
20661 1 0.169317 0.527628 0.375109
20660 1 0.183383 0.20049 0.350139
20659 1 0.155288 0.864771 0.350153
20655 1 0.169317 0.0276276 0.375109
20654 1 0.183383 0.70049 0.350139
20653 1 0.155288 0.364771 0.350153
20652 1 0.141212 0.192359 0.375114
20646 1 0.141212 0.692359 0.375114
20094 1 0.141277 0.701507 0.325194
20100 1 0.141277 0.201507 0.325194
20103 1 0.169357 0.0373718 0.325187
20109 1 0.169357 0.537372 0.325187
20673 1 0.253598 0.535235 0.375039
20671 1 0.239568 0.872828 0.350087
20667 1 0.253598 0.035235 0.375039
20665 1 0.239568 0.372828 0.350087
20664 1 0.225508 0.198991 0.375068
20663 1 0.197415 0.863152 0.375093
20662 1 0.211476 0.536473 0.350115
20658 1 0.225508 0.698991 0.375068
20657 1 0.197415 0.363152 0.375093
20656 1 0.211476 0.0364732 0.350115
20105 1 0.19745 0.373465 0.325166
20106 1 0.225542 0.70986 0.325138
20111 1 0.19745 0.873465 0.325166
20112 1 0.225542 0.20986 0.325138
20115 1 0.253639 0.0467037 0.32511
20121 1 0.253639 0.546704 0.32511
20676 1 0.309782 0.209463 0.374976
20675 1 0.281689 0.872005 0.375007
20674 1 0.295761 0.547149 0.350029
20672 1 0.267663 0.209675 0.350058
20670 1 0.309782 0.709463 0.374976
20669 1 0.281689 0.372004 0.375007
20668 1 0.295761 0.0471492 0.350029
20666 1 0.267663 0.709675 0.350058
20117 1 0.281741 0.384118 0.325084
20118 1 0.309851 0.722235 0.325064
20123 1 0.281741 0.884118 0.325084
20124 1 0.309851 0.222235 0.325064
20687 1 0.365991 0.887498 0.374925
20686 1 0.380118 0.565489 0.349987
20685 1 0.337881 0.547846 0.374947
20684 1 0.351984 0.224761 0.349989
20683 1 0.323867 0.885425 0.350005
20681 1 0.365991 0.387498 0.374925
20680 1 0.380118 0.0654895 0.349987
20679 1 0.337881 0.0478456 0.374947
20678 1 0.351984 0.724761 0.349989
20677 1 0.323867 0.385425 0.350005
20127 1 0.337971 0.0612338 0.325052
20129 1 0.366106 0.401346 0.325053
20133 1 0.337971 0.561234 0.325052
20135 1 0.366106 0.901346 0.325053
20697 1 0.422287 0.572772 0.374931
20696 1 0.436464 0.252925 0.35005
20695 1 0.408277 0.908054 0.350007
20691 1 0.422287 0.0727714 0.374931
20690 1 0.436464 0.752925 0.35005
20689 1 0.408277 0.408055 0.350007
20688 1 0.394123 0.228903 0.374917
20682 1 0.394123 0.728902 0.374917
20145 1 0.422431 0.586035 0.325112
20130 1 0.394259 0.742856 0.325073
20136 1 0.394259 0.242856 0.325073
20139 1 0.422431 0.0860348 0.325112
20700 1 0.478751 0.271241 0.37504
20699 1 0.450496 0.920054 0.374975
20698 1 0.464679 0.600361 0.350108
20694 1 0.478751 0.77124 0.37504
20693 1 0.450496 0.420053 0.374975
20692 1 0.464679 0.100361 0.350108
20148 1 0.47882 0.277576 0.32521
20147 1 0.45062 0.931007 0.325164
20141 1 0.45062 0.431007 0.325164
20142 1 0.47882 0.777576 0.32521
20707 1 0.492908 0.949908 0.35015
20701 1 0.492908 0.449909 0.35015
21192 1 0.0569844 0.179093 0.425125
21191 3 0.0285356 0.846108 0.42506
21190 3 0.0426091 0.517196 0.40008
21188 3 0.014462 0.182906 0.40008
21186 1 0.0569844 0.679093 0.425125
21185 3 0.0285356 0.346107 0.42506
21184 3 0.0426091 0.017197 0.40008
21182 3 0.014462 0.682905 0.40008
21203 1 0.113139 0.847779 0.42505
21202 1 0.127164 0.519941 0.400071
21201 1 0.085067 0.51354 0.425073
21200 1 0.0990734 0.185262 0.400053
21199 1 0.0710864 0.851007 0.400116
21197 1 0.113139 0.347779 0.42505
21196 1 0.127164 0.0199408 0.400071
21195 1 0.085067 0.0135399 0.425073
21194 1 0.0990734 0.685262 0.400053
21193 1 0.0710864 0.351007 0.400116
21213 1 0.16932 0.516896 0.425044
21212 1 0.183362 0.189938 0.400069
21211 1 0.155262 0.854854 0.400076
21207 1 0.16932 0.0168965 0.425044
21206 1 0.183362 0.689938 0.400069
21205 1 0.155262 0.354854 0.400076
21204 1 0.141222 0.182245 0.425048
21198 1 0.141222 0.682245 0.425048
21225 1 0.253603 0.522013 0.424986
21223 1 0.239549 0.860884 0.400025
21219 1 0.253603 0.0220126 0.424986
21217 1 0.239549 0.360884 0.400025
21216 1 0.225512 0.186716 0.425012
21215 1 0.197417 0.851701 0.425031
21214 1 0.211457 0.525256 0.400051
21210 1 0.225512 0.686716 0.425012
21209 1 0.197417 0.351701 0.425031
21208 1 0.211457 0.0252555 0.400051
21228 1 0.309769 0.193929 0.424923
21227 1 0.281689 0.857697 0.424956
21226 1 0.295723 0.533503 0.399962
21224 1 0.267637 0.196917 0.399995
21222 1 0.309769 0.693929 0.424923
21221 1 0.281689 0.357697 0.424956
21220 1 0.295723 0.0335034 0.399962
21218 1 0.267637 0.696917 0.399995
21239 1 0.36592 0.869112 0.424846
21238 1 0.379995 0.549104 0.399862
21237 1 0.337845 0.530942 0.424886
21236 1 0.351897 0.20922 0.399893
21235 1 0.323808 0.870836 0.399927
21233 1 0.36592 0.369111 0.424846
21232 1 0.379995 0.0491043 0.399862
21231 1 0.337845 0.0309421 0.424886
21230 1 0.351897 0.70922 0.399893
21229 1 0.323808 0.370836 0.399927
21249 1 0.422097 0.551611 0.424761
21248 1 0.436281 0.236702 0.399837
21247 1 0.408117 0.891181 0.399841
21243 1 0.422097 0.0516095 0.424761
21242 1 0.436281 0.736703 0.399837
21241 1 0.408117 0.391181 0.399841
21240 1 0.394 0.209001 0.424804
21234 1 0.394 0.709002 0.424804
21252 1 0.478556 0.256786 0.424755
21251 1 0.450245 0.899277 0.424714
21250 1 0.464524 0.58772 0.399881
21246 1 0.478556 0.756784 0.424755
21245 1 0.450245 0.399277 0.424714
21244 1 0.464524 0.0877208 0.39988
21259 1 0.492852 0.945044 0.399951
21253 1 0.492852 0.445045 0.399951
21744 1 0.0570085 0.171099 0.475005
21743 3 0.0285356 0.838075 0.47502
21742 3 0.0426091 0.509045 0.45004
21741 3 0.00038843 0.504478 0.47502
21740 3 0.014462 0.175198 0.45004
21738 1 0.0570085 0.671099 0.475005
21737 3 0.0285356 0.338075 0.47502
21736 3 0.0426091 0.00904539 0.45004
21735 3 0.00038843 0.00447815 0.47502
21734 3 0.014462 0.675197 0.45004
22286 3 0.014462 0.667326 0.5
22288 1 0.0429272 6.93563e-05 0.499997
22292 3 0.014462 0.167326 0.5
22294 1 0.0429272 0.500069 0.499997
21755 1 0.113149 0.838036 0.475013
21754 1 0.127186 0.509988 0.45003
21753 1 0.0850485 0.504462 0.47501
21752 1 0.0990912 0.17605 0.45004
21751 1 0.0709883 0.842288 0.450047
21749 1 0.113149 0.338036 0.475013
21748 1 0.127186 0.0099882 0.45003
21747 1 0.0850485 0.00446178 0.47501
21746 1 0.0990912 0.67605 0.45004
21745 1 0.0709883 0.342288 0.450047
22298 1 0.0991144 0.666394 0.499996
22300 1 0.127214 0.999693 0.499986
22304 1 0.0991144 0.166394 0.499996
22306 1 0.127214 0.499693 0.499986
21765 1 0.169357 0.505525 0.474993
21764 1 0.183386 0.17843 0.450012
21763 1 0.155285 0.844148 0.450023
21759 1 0.169357 0.0055251 0.474993
21758 1 0.183386 0.67843 0.450012
21757 1 0.155285 0.344148 0.450023
21756 1 0.141251 0.171746 0.475004
21750 1 0.141251 0.671746 0.475004
22309 1 0.155327 0.33304 0.499974
22310 1 0.183439 0.666368 0.49996
22315 1 0.155327 0.83304 0.499974
22316 1 0.183439 0.166368 0.49996
21777 1 0.253668 0.507236 0.474944
21775 1 0.239582 0.847416 0.449976
21771 1 0.253668 0.00723558 0.474944
21769 1 0.239582 0.347416 0.449976
21768 1 0.225567 0.173265 0.474963
21767 1 0.197463 0.839367 0.474979
21766 1 0.211486 0.512842 0.449997
21762 1 0.225567 0.673265 0.474963
21761 1 0.197463 0.339367 0.474979
21760 1 0.211486 0.0128419 0.449997
22312 1 0.211552 0.99966 0.499946
22318 1 0.211552 0.49966 0.499946
22321 1 0.239663 0.3329 0.49993
22327 1 0.239663 0.8329 0.49993
21780 1 0.309853 0.175574 0.4749
21779 1 0.281764 0.841313 0.474922
21778 1 0.295759 0.517337 0.449924
21776 1 0.267674 0.182215 0.449951
21774 1 0.309853 0.675574 0.4749
21773 1 0.281764 0.341313 0.474922
21772 1 0.295759 0.0173372 0.449924
21770 1 0.267674 0.682215 0.449951
22322 1 0.267771 0.666067 0.499914
22324 1 0.295875 0.999147 0.499899
22328 1 0.267771 0.166067 0.499914
22330 1 0.295875 0.499147 0.499899
21791 1 0.365999 0.845207 0.474847
21790 1 0.379963 0.526813 0.449816
21789 1 0.337933 0.510141 0.474875
21788 1 0.351905 0.1893 0.449858
21787 1 0.323836 0.85295 0.449893
21785 1 0.366 0.345207 0.474847
21784 1 0.379963 0.026813 0.449816
21783 1 0.337933 0.0101404 0.474875
21782 1 0.351905 0.689301 0.449858
21781 1 0.323836 0.35295 0.449893
22333 1 0.323974 0.332143 0.499884
22334 1 0.352064 0.665027 0.499871
22336 1 0.380143 0.997696 0.499862
22339 1 0.323974 0.832143 0.499884
22340 1 0.352064 0.165027 0.499871
22342 1 0.380143 0.497695 0.499862
21801 1 0.422047 0.518349 0.474769
21800 1 0.436056 0.208825 0.449689
21799 1 0.408012 0.866203 0.449763
21795 1 0.422047 0.0183498 0.474769
21794 1 0.436056 0.708825 0.449688
21793 1 0.408012 0.366204 0.449763
21792 1 0.394043 0.181088 0.474814
21786 1 0.394043 0.681087 0.474814
22345 1 0.408202 0.329846 0.499861
22346 1 0.436236 0.660604 0.499878
22351 1 0.408202 0.829847 0.499861
22352 1 0.436236 0.160603 0.499878
21805 1 0.492655 0.429612 0.449645
21811 1 0.492656 0.929611 0.449645
21804 1 0.478061 0.208699 0.474543
21803 1 0.45001 0.858262 0.474702
21802 1 0.46417 0.559215 0.449567
21798 1 0.478061 0.708699 0.474543
21797 1 0.45001 0.35826 0.474702
21796 1 0.46417 0.059217 0.449567
22348 1 0.464317 0.987602 0.499947
22354 1 0.464317 0.487603 0.499947
22287 3 0.00038843 0.996801 0.52498
22289 3 0.0285356 0.329945 0.52498
22290 1 0.0570131 0.662449 0.524997
22293 3 0.00038843 0.4968 0.52498
22295 3 0.0285356 0.829945 0.52498
22296 1 0.0570131 0.162449 0.524997
22838 3 0.014462 0.659441 0.54996
22840 3 0.0426091 0.992338 0.54996
22844 3 0.014462 0.159442 0.54996
22846 3 0.0426091 0.492337 0.54996
22299 1 0.0850623 0.995131 0.524989
22301 1 0.113176 0.328043 0.524969
22305 1 0.0850623 0.495131 0.524989
22307 1 0.113176 0.828043 0.524969
22849 1 0.0710061 0.324403 0.549958
22850 1 0.0991307 0.656832 0.549949
22852 1 0.127253 0.989381 0.549934
22855 1 0.0710061 0.824403 0.549958
22856 1 0.0991307 0.156832 0.549949
22858 1 0.127253 0.489381 0.549934
22297 1 0.071017 0.333228 0.500001
22303 1 0.071017 0.833228 0.500001
22302 1 0.141292 0.660995 0.524954
22308 1 0.141292 0.160995 0.524954
22311 1 0.169412 0.993888 0.52494
22317 1 0.169412 0.493888 0.52494
22861 1 0.155379 0.321915 0.549917
22862 1 0.183503 0.654289 0.549903
22867 1 0.155379 0.821915 0.549917
22868 1 0.183503 0.154289 0.549903
22313 1 0.197531 0.326666 0.524926
22314 1 0.225651 0.659292 0.524912
22319 1 0.197531 0.826666 0.524926
22320 1 0.225651 0.159292 0.524912
22323 1 0.25377 0.991717 0.524899
22329 1 0.25377 0.491717 0.524899
22864 1 0.21163 0.986433 0.54989
22870 1 0.21163 0.486433 0.54989
22873 1 0.239756 0.318293 0.549879
22879 1 0.239756 0.818293 0.549879
22325 1 0.281887 0.323864 0.524888
22326 1 0.310002 0.65565 0.52488
22331 1 0.281887 0.823864 0.524888
22332 1 0.310002 0.15565 0.52488
22874 1 0.267882 0.649757 0.549871
22876 1 0.296008 0.980704 0.549867
22880 1 0.267882 0.149757 0.549871
22882 1 0.296008 0.480704 0.549867
22335 1 0.338114 0.986915 0.524877
22337 1 0.366221 0.317339 0.524884
22341 1 0.338114 0.486915 0.524877
22343 1 0.366221 0.81734 0.524884
22885 1 0.324132 0.310932 0.54987
22886 1 0.352254 0.640087 0.549884
22888 1 0.380373 0.967531 0.549919
22891 1 0.324132 0.810933 0.54987
22892 1 0.352254 0.140087 0.549884
22894 1 0.380373 0.467532 0.549919
22338 1 0.394325 0.646258 0.524908
22344 1 0.394325 0.146257 0.524908
22347 1 0.422426 0.972249 0.524969
22353 1 0.422426 0.47225 0.524969
22897 1 0.408487 0.292134 0.549991
22898 1 0.4366 0.611879 0.55013
22903 1 0.408487 0.792134 0.549991
22904 1 0.4366 0.11188 0.55013
22349 1 0.450548 0.291996 0.525103
22350 1 0.478688 0.596247 0.52546
22355 1 0.450548 0.791994 0.525102
22356 1 0.478689 0.0962482 0.52546
22900 1 0.464707 0.923383 0.550419
22906 1 0.464707 0.423382 0.550419
22909 1 0.492867 0.225574 0.550783
22915 1 0.492867 0.725575 0.550783
22363 1 0.492588 0.791821 0.500227
22357 1 0.492588 0.291821 0.500227
22841 3 0.0285356 0.321884 0.57494
22842 1 0.0570043 0.653212 0.574889
22847 3 0.0285356 0.821885 0.57494
22848 1 0.0570043 0.153212 0.574889
23390 3 0.014462 0.651696 0.59992
23392 3 0.0426091 0.984142 0.59992
23393 3 0.0285356 0.314053 0.6249
23394 1 0.0567535 0.646566 0.624957
23396 3 0.014462 0.151696 0.59992
23398 3 0.0426091 0.484142 0.59992
23399 3 0.0285356 0.814054 0.6249
23400 1 0.0567535 0.146566 0.624957
22851 1 0.0851054 0.985811 0.574933
22853 1 0.113221 0.318181 0.574914
22857 1 0.0851054 0.485811 0.574933
22859 1 0.113221 0.818181 0.574914
23401 1 0.0710946 0.3156 0.599925
23402 1 0.0991647 0.647488 0.599902
23403 1 0.0851197 0.977417 0.624875
23404 1 0.127295 0.979447 0.599874
23405 1 0.113248 0.308989 0.624848
23407 1 0.0710946 0.8156 0.599925
23408 1 0.0991647 0.147488 0.599902
23409 1 0.0851197 0.477417 0.624875
23410 1 0.127295 0.479447 0.599874
23411 1 0.113248 0.808989 0.624848
22854 1 0.141339 0.650425 0.574896
22860 1 0.141339 0.150425 0.574896
22863 1 0.169467 0.982493 0.574879
22869 1 0.169467 0.482493 0.574879
23406 1 0.141372 0.640525 0.624833
23412 1 0.141372 0.140525 0.624833
23413 1 0.155423 0.311256 0.599856
23414 1 0.183554 0.64279 0.599841
23415 1 0.169502 0.971882 0.624818
23419 1 0.155423 0.811256 0.599856
23420 1 0.183554 0.14279 0.599841
23421 1 0.169502 0.471882 0.624818
22865 1 0.197597 0.314286 0.574866
22866 1 0.225728 0.645739 0.574855
22871 1 0.197597 0.814286 0.574866
22872 1 0.225728 0.145739 0.574855
22875 1 0.25386 0.976744 0.574848
22881 1 0.25386 0.476744 0.574848
23416 1 0.211687 0.973969 0.59983
23417 1 0.197634 0.302887 0.624805
23418 1 0.225769 0.633437 0.624796
23422 1 0.211687 0.473969 0.59983
23423 1 0.197634 0.802887 0.624805
23424 1 0.225769 0.133437 0.624796
23425 1 0.239821 0.304683 0.599823
23427 1 0.253904 0.9634 0.624795
23431 1 0.239821 0.804683 0.599823
23433 1 0.253904 0.4634 0.624795
22877 1 0.281991 0.307157 0.574846
22878 1 0.310122 0.636792 0.574852
22883 1 0.281991 0.807157 0.574846
22884 1 0.310122 0.136792 0.574852
23426 1 0.267955 0.634794 0.599822
23428 1 0.296088 0.964137 0.599829
23429 1 0.282038 0.292642 0.624802
23430 1 0.310168 0.620972 0.624822
23432 1 0.267955 0.134794 0.599822
23434 1 0.296088 0.464137 0.599829
23435 1 0.282038 0.792642 0.624802
23436 1 0.310168 0.120972 0.624822
22887 1 0.33825 0.965339 0.57487
22889 1 0.366373 0.292299 0.574909
22893 1 0.33825 0.465339 0.57487
22895 1 0.366373 0.792298 0.574909
23437 1 0.324218 0.292467 0.599849
23438 1 0.352343 0.619429 0.599887
23439 1 0.338293 0.948149 0.624858
23440 1 0.380461 0.944512 0.599952
23441 1 0.366411 0.273846 0.624917
23443 1 0.324218 0.792467 0.599849
23444 1 0.352343 0.119429 0.599887
23445 1 0.338293 0.448149 0.624858
23446 1 0.380461 0.444511 0.599952
23447 1 0.366411 0.773846 0.624917
22890 1 0.394491 0.616894 0.574979
22896 1 0.394491 0.116895 0.574979
22899 1 0.422601 0.938018 0.575102
22905 1 0.422601 0.438017 0.575102
23442 1 0.394522 0.5977 0.625006
23448 1 0.394522 0.0976999 0.625006
23449 1 0.40857 0.267096 0.600057
23450 1 0.436675 0.586583 0.600213
23451 1 0.422629 0.919423 0.62513
23455 1 0.40857 0.767096 0.600057
23456 1 0.436675 0.0865819 0.600213
23457 1 0.422629 0.419423 0.62513
22901 1 0.450705 0.254278 0.57531
22902 1 0.478829 0.565622 0.575569
22907 1 0.450705 0.754279 0.57531
22908 1 0.478829 0.065621 0.575569
23452 1 0.464791 0.903032 0.600401
23453 1 0.450742 0.239079 0.625275
23454 1 0.478875 0.557309 0.625398
23458 1 0.464791 0.403033 0.600401
23459 1 0.450741 0.739078 0.625275
23460 1 0.478875 0.0573096 0.625398
23461 1 0.492942 0.217754 0.600529
23467 1 0.492942 0.717753 0.600529
23944 3 0.0426091 0.976273 0.64988
23945 3 0.0285356 0.306584 0.67486
23946 3 0.0566827 0.638374 0.67486
23950 3 0.0426091 0.476272 0.64988
23951 3 0.0285356 0.806585 0.67486
23952 3 0.0566827 0.138375 0.67486
23953 1 0.0711037 0.307004 0.649824
23954 1 0.0992151 0.638814 0.649824
23955 1 0.0851942 0.969343 0.674789
23956 1 0.127322 0.970266 0.649813
23957 1 0.113232 0.300523 0.674803
23959 1 0.0711037 0.807004 0.649824
23960 1 0.0992151 0.138814 0.649824
23961 1 0.0851942 0.469343 0.674789
23962 1 0.127322 0.470266 0.649813
23963 1 0.113232 0.800523 0.674803
23958 1 0.141357 0.63164 0.674779
23964 1 0.141357 0.13164 0.674779
23965 1 0.155437 0.301492 0.649797
23966 1 0.18357 0.632411 0.64978
23967 1 0.169489 0.962492 0.674756
23971 1 0.155437 0.801492 0.649797
23972 1 0.18357 0.132411 0.64978
23973 1 0.169489 0.462492 0.674756
23968 1 0.211705 0.962882 0.649769
23969 1 0.19763 0.29293 0.67474
23970 1 0.225769 0.622846 0.674735
23974 1 0.211705 0.462882 0.649769
23975 1 0.19763 0.79293 0.67474
23976 1 0.225769 0.122846 0.674735
23977 1 0.239841 0.292797 0.649766
23979 1 0.253904 0.952156 0.67474
23983 1 0.239841 0.792797 0.649766
23985 1 0.253904 0.452156 0.67474
23978 1 0.267975 0.622046 0.649772
23980 1 0.296106 0.950491 0.649791
23981 1 0.282035 0.280768 0.674757
23982 1 0.310162 0.60856 0.674786
23984 1 0.267975 0.122046 0.649772
23986 1 0.296106 0.450491 0.649791
23987 1 0.282035 0.780768 0.674757
23988 1 0.310162 0.10856 0.674786
23989 1 0.324231 0.277963 0.649824
23990 1 0.352351 0.604258 0.649876
23991 1 0.338283 0.935393 0.674832
23992 1 0.380464 0.929151 0.649952
23993 1 0.366399 0.261126 0.674897
23995 1 0.324231 0.777963 0.649824
23996 1 0.352351 0.104258 0.649876
23997 1 0.338283 0.435393 0.674832
23998 1 0.380464 0.429151 0.649952
23999 1 0.366399 0.761126 0.674897
23994 1 0.394512 0.585682 0.674981
24000 1 0.394512 0.0856817 0.674981
24001 1 0.408573 0.252495 0.650053
24002 1 0.436686 0.57433 0.650171
24003 1 0.422627 0.909088 0.675079
24007 1 0.408573 0.752495 0.650053
24008 1 0.436686 0.0743299 0.650171
24009 1 0.422627 0.409088 0.675079
24004 1 0.464812 0.894997 0.650281
24005 1 0.450749 0.23154 0.675175
24006 1 0.478884 0.553371 0.675247
24010 1 0.464812 0.394997 0.650281
24011 1 0.450749 0.73154 0.675175
24012 1 0.478884 0.0533712 0.675247
24013 1 0.492953 0.21502 0.650348
24019 1 0.492953 0.715021 0.650348
24496 3 0.0426091 0.968853 0.69984
24498 3 0.0566827 0.631055 0.72482
24502 3 0.0426091 0.468852 0.69984
24504 3 0.0566827 0.131055 0.72482
25066 1 0.127219 0.454952 0.74965
25064 3 0.0989034 0.124259 0.7498
25063 3 0.0707563 0.793219 0.7498
25060 1 0.127219 0.954952 0.74965
25058 3 0.0989034 0.624258 0.7498
25057 3 0.0707563 0.293218 0.7498
24505 3 0.0707563 0.300385 0.69984
24506 1 0.0991134 0.631483 0.699762
24507 3 0.0848298 0.962336 0.72482
24508 1 0.127234 0.962331 0.699761