ITEM: TIMESTEP
43
ITEM: NUMBER OF ATOMS
2360
ITEM: BOX BOUNDS ss pp ss
-4.1846240876000003e+01 4.0972067143000004e+01
-4.1208122699999999e-01 4.5329187729999996e+00
-4.0576341511000003e+01 4.0239854181000005e+01
ITEM: ATOMS id type xs ys zs
16806 3 0.310007 0.76004 0.0253797
16812 3 0.310007 0.26004 0.0253797
17354 3 0.267786 0.752341 0.0503597
17356 3 0.295933 0.0897175 0.0503597
17360 3 0.267786 0.252342 0.0503597
17362 3 0.295933 0.589717 0.0503597
16815 3 0.338154 0.0975537 0.0253797
16816 3 0.380375 0.105122 0.00039968
16817 3 0.366301 0.43523 0.0253797
16821 3 0.338154 0.597553 0.0253797
16822 3 0.380375 0.605121 0.00039968
16823 3 0.366301 0.935231 0.0253797
17365 3 0.32408 0.427298 0.0503597
17366 3 0.352228 0.765073 0.0503597
17368 1 0.380466 0.104123 0.0506819
17371 3 0.32408 0.927298 0.0503597
17372 3 0.352228 0.265074 0.0503597
17374 1 0.380466 0.604123 0.0506819
16818 3 0.394448 0.773054 0.0253797
16824 3 0.394448 0.273055 0.0253797
16825 3 0.408522 0.442806 0.00039968
16826 3 0.436669 0.780587 0.00039968
16827 3 0.422595 0.111002 0.0253797
16831 3 0.408522 0.942806 0.00039968
16832 3 0.436669 0.280587 0.00039968
16833 3 0.422595 0.611002 0.0253797
17377 1 0.408632 0.441614 0.0507087
17378 1 0.436712 0.779421 0.0505757
17383 1 0.408632 0.941614 0.0507087
17384 1 0.436712 0.279421 0.0505757
16828 3 0.464816 0.118438 0.00039968
16829 3 0.450743 0.449046 0.0253797
16830 3 0.47889 0.787158 0.0253797
16834 3 0.464816 0.618438 0.00039968
16835 3 0.450743 0.949047 0.0253797
16836 3 0.47889 0.287158 0.0253797
17380 1 0.464836 0.117701 0.0505572
17386 1 0.464836 0.617701 0.0505572
16837 3 0.492963 0.456332 0.00039968
16843 3 0.492963 0.956332 0.00039968
17389 1 0.492968 0.456087 0.0505532
17395 1 0.492968 0.956087 0.0505532
17895 3 0.169271 0.0660793 0.1253
17901 3 0.169271 0.566079 0.1253
17346 3 0.225565 0.744599 0.0753397
17352 3 0.225565 0.244599 0.0753397
17355 3 0.253713 0.0817556 0.0753397
17361 3 0.253713 0.581755 0.0753397
17896 3 0.211492 0.0738251 0.10032
17897 3 0.197418 0.402861 0.1253
17898 1 0.22552 0.738845 0.125386
17902 3 0.211492 0.573825 0.10032
17903 3 0.197418 0.902861 0.1253
17904 1 0.22552 0.238845 0.125386
17905 3 0.239639 0.410944 0.10032
17907 1 0.253845 0.0773471 0.125589
17911 3 0.239639 0.910945 0.10032
17913 1 0.253845 0.577347 0.125589
17357 3 0.28186 0.419147 0.0753397
17358 1 0.310094 0.757409 0.0756388
17363 3 0.28186 0.919147 0.0753397
17364 1 0.310094 0.257409 0.0756388
17906 1 0.267972 0.748824 0.100556
17908 1 0.296114 0.0864708 0.100671
17909 1 0.281965 0.415164 0.12555
17910 1 0.310124 0.753238 0.12555
17912 1 0.267972 0.248824 0.100556
17914 1 0.296114 0.586471 0.100671
17915 1 0.281965 0.915164 0.12555
17916 1 0.310124 0.253238 0.12555
17367 1 0.338299 0.0950995 0.075632
17369 1 0.366395 0.433135 0.0755779
17373 1 0.338299 0.595099 0.075632
17375 1 0.366395 0.933135 0.0755779
17917 1 0.324213 0.424342 0.10057
17918 1 0.352335 0.762494 0.100538
17919 1 0.338257 0.0913433 0.125518
17920 1 0.380459 0.100798 0.100549
17921 1 0.366386 0.429775 0.125505
17923 1 0.324213 0.924342 0.10057
17924 1 0.352335 0.262494 0.100538
17925 1 0.338257 0.591343 0.125518
17926 1 0.380459 0.600798 0.100549
17927 1 0.366386 0.929775 0.125505
17370 1 0.394542 0.771594 0.0756165
17376 1 0.394542 0.271594 0.0756165
17379 1 0.422678 0.109831 0.0755701
17385 1 0.422678 0.609831 0.0755701
17922 1 0.394521 0.768513 0.125507
17928 1 0.394521 0.268513 0.125507
17929 1 0.408604 0.439439 0.100556
17930 1 0.436734 0.778108 0.100526
17931 1 0.422659 0.107517 0.125503
17935 1 0.408604 0.939439 0.100556
17936 1 0.436734 0.278108 0.100526
17937 1 0.422659 0.607517 0.125503
17381 1 0.45079 0.448064 0.0755148
17382 1 0.47891 0.786615 0.0754978
17387 1 0.45079 0.948064 0.0755148
17388 1 0.47891 0.286615 0.0754978
17932 1 0.464854 0.116845 0.100499
17933 1 0.450789 0.446636 0.12549
17934 1 0.478913 0.785887 0.125481
17938 1 0.464854 0.616845 0.100499
17939 1 0.450789 0.946636 0.12549
17940 1 0.478913 0.285887 0.125481
17941 1 0.492975 0.455767 0.10049
17947 1 0.492975 0.955767 0.10049
18437 3 0.112977 0.387652 0.17526
18443 3 0.112977 0.887652 0.17526
18438 3 0.141124 0.723905 0.17526
18444 3 0.141124 0.223906 0.17526
18445 3 0.155198 0.395055 0.15028
18446 3 0.183345 0.731722 0.15028
18447 1 0.169226 0.059346 0.175332
18451 3 0.155198 0.895055 0.15028
18452 3 0.183345 0.231722 0.15028
18453 1 0.169226 0.559346 0.175332
18448 1 0.211658 0.0691655 0.150557
18449 1 0.19754 0.397225 0.17555
18450 1 0.22566 0.73449 0.17548
18454 1 0.211658 0.569165 0.150557
18455 1 0.19754 0.897225 0.17555
18456 1 0.22566 0.23449 0.17548
18457 1 0.239738 0.405839 0.150503
18459 1 0.253785 0.0717339 0.175431
18463 1 0.239738 0.905839 0.150503
18465 1 0.253785 0.571734 0.175431
18458 1 0.267861 0.743557 0.150483
18460 1 0.296014 0.0815147 0.150483
18461 1 0.281919 0.40952 0.175416
18462 1 0.310061 0.747699 0.175411
18464 1 0.267861 0.243557 0.150483
18466 1 0.296014 0.581515 0.150483
18467 1 0.281919 0.90952 0.175416
18468 1 0.310061 0.247699 0.175411
18469 1 0.324161 0.419786 0.150472
18470 1 0.3523 0.758274 0.150461
18471 1 0.338207 0.0862573 0.175411
18472 1 0.380438 0.0971213 0.150463
18473 1 0.366349 0.425216 0.175414
18475 1 0.324161 0.919786 0.150472
18476 1 0.3523 0.258274 0.150461
18477 1 0.338207 0.586257 0.175411
18478 1 0.380438 0.597121 0.150463
18479 1 0.366349 0.925216 0.175414
18474 1 0.39449 0.764609 0.175423
18480 1 0.39449 0.264609 0.175423
18481 1 0.408578 0.436339 0.150469
18482 1 0.436714 0.775833 0.15047
18483 1 0.422631 0.1044 0.175434
18487 1 0.408578 0.936339 0.150469
18488 1 0.436714 0.275833 0.15047
18489 1 0.422631 0.6044 0.175434
18484 1 0.464845 0.115505 0.150468
18485 1 0.450769 0.444497 0.175442
18486 1 0.478903 0.7848 0.175446
18490 1 0.464845 0.615505 0.150468
18491 1 0.450769 0.944497 0.175442
18492 1 0.478903 0.2848 0.175446
18493 1 0.492972 0.455302 0.150466
18499 1 0.492972 0.955302 0.150466
18986 3 0.0989034 0.716577 0.20024
18987 3 0.0848298 0.0454502 0.22522
18988 3 0.127051 0.052653 0.20024
18989 3 0.112977 0.381325 0.22522
18992 3 0.0989034 0.216577 0.20024
18993 3 0.0848298 0.54545 0.22522
18994 3 0.127051 0.552652 0.20024
18995 3 0.112977 0.881326 0.22522
18990 1 0.141339 0.717567 0.225481
18996 1 0.141339 0.217567 0.225481
18997 1 0.155387 0.389479 0.200492
18998 1 0.183455 0.725484 0.200443
18999 1 0.169412 0.053971 0.225412
19003 1 0.155387 0.889479 0.200492
19004 1 0.183455 0.225484 0.200443
19005 1 0.169412 0.553971 0.225412
19000 1 0.211569 0.062536 0.200416
19001 1 0.19751 0.390441 0.225364
19002 1 0.225625 0.727438 0.225338
19006 1 0.211569 0.562536 0.200416
19007 1 0.19751 0.890441 0.225364
19008 1 0.225625 0.227438 0.225338
19009 1 0.239706 0.399748 0.200392
19011 1 0.253748 0.0647652 0.225313
19015 1 0.239706 0.899748 0.200392
19017 1 0.253748 0.564765 0.225313
19010 1 0.267832 0.73726 0.200361
19012 1 0.295967 0.0752567 0.200351
19013 1 0.281876 0.402529 0.225297
19014 1 0.310009 0.740849 0.225291
19016 1 0.267832 0.23726 0.200361
19018 1 0.295967 0.575257 0.200351
19019 1 0.281876 0.902529 0.225297
19020 1 0.310009 0.240849 0.225291
19021 1 0.324108 0.413757 0.200351
19022 1 0.352251 0.752754 0.200357
19023 1 0.338149 0.07976 0.225294
19024 1 0.380396 0.092269 0.200369
19025 1 0.366293 0.41929 0.225306
19027 1 0.324108 0.913757 0.200351
19028 1 0.352251 0.252754 0.200357
19029 1 0.338149 0.57976 0.225294
19030 1 0.380396 0.592269 0.200369
19031 1 0.366293 0.91929 0.225306
19026 1 0.394441 0.759465 0.225326
19032 1 0.394441 0.259465 0.225326
19033 1 0.40854 0.432297 0.200385
19034 1 0.436684 0.772776 0.200402
19035 1 0.42259 0.100256 0.225349
19039 1 0.40854 0.932297 0.200385
19040 1 0.436684 0.272776 0.200402
19041 1 0.42259 0.600256 0.225349
19036 1 0.464826 0.113598 0.200416
19037 1 0.45074 0.441572 0.225372
19038 1 0.478887 0.783275 0.225389
19042 1 0.464826 0.613598 0.200416
19043 1 0.45074 0.941572 0.225372
19044 1 0.478887 0.283275 0.225389
19045 1 0.492965 0.454638 0.200424
19051 1 0.492965 0.954638 0.200424
19530 3 0.0566827 0.703153 0.27518
19536 3 0.0566827 0.203153 0.27518
20080 3 0.0426091 0.0320396 0.30016
20086 3 0.0426091 0.532039 0.30016
19537 3 0.0707563 0.374299 0.2502
19538 3 0.0989034 0.709955 0.2502
19539 3 0.0848298 0.0385731 0.27518
19540 1 0.127201 0.0457407 0.250319
19541 1 0.113153 0.374032 0.275253
19543 3 0.0707563 0.874299 0.2502
19544 3 0.0989034 0.209955 0.2502
19545 3 0.0848298 0.538573 0.27518
19546 1 0.127201 0.545741 0.250319
19547 1 0.113153 0.874032 0.275253
20089 3 0.0707563 0.367212 0.30016
20090 1 0.0992321 0.702161 0.300217
20092 1 0.127226 0.0375696 0.300194
20095 3 0.0707563 0.867212 0.30016
20096 1 0.0992321 0.202161 0.300217
20098 1 0.127226 0.53757 0.300194
19542 1 0.141236 0.709814 0.275247
19548 1 0.141236 0.209814 0.275247
19549 1 0.155314 0.382037 0.250341
19550 1 0.183441 0.718359 0.250326
19551 1 0.169362 0.0460152 0.275264
19555 1 0.155314 0.882037 0.250341
19556 1 0.183441 0.218359 0.250326
19557 1 0.169362 0.546015 0.275264
20101 1 0.155309 0.373467 0.300203
20102 1 0.183405 0.709684 0.300201
20107 1 0.155309 0.873467 0.300203
20108 1 0.183405 0.209684 0.300201
19552 1 0.211549 0.054986 0.250291
19553 1 0.197474 0.382424 0.275247
19554 1 0.225585 0.719155 0.275225
19558 1 0.211549 0.554986 0.250291
19559 1 0.197474 0.882424 0.275247
19560 1 0.225585 0.219155 0.275225
19561 1 0.239665 0.39203 0.250267
19563 1 0.253697 0.0563473 0.275203
19567 1 0.239665 0.89203 0.250267
19569 1 0.253697 0.556347 0.275203
20104 1 0.211509 0.0461587 0.300186
20110 1 0.211509 0.546159 0.300186
20113 1 0.239614 0.383002 0.300165
20119 1 0.239614 0.883002 0.300165
19562 1 0.267785 0.729545 0.250247
19564 1 0.295911 0.0675991 0.250235
19565 1 0.281814 0.394071 0.275184
19566 1 0.309939 0.73244 0.275173
19568 1 0.267785 0.229545 0.250247
19570 1 0.295911 0.567599 0.250235
19571 1 0.281814 0.894071 0.275184
19572 1 0.309939 0.23244 0.275173
20114 1 0.267722 0.720332 0.300142
20116 1 0.295837 0.0582762 0.300123
20120 1 0.267722 0.220332 0.300142
20122 1 0.295837 0.558276 0.300123
19573 1 0.324044 0.406296 0.250232
19574 1 0.352185 0.7457 0.250239
19575 1 0.338072 0.0715585 0.275172
19576 1 0.380333 0.0858746 0.250257
19577 1 0.366216 0.411549 0.275183
19579 1 0.324044 0.906296 0.250232
19580 1 0.352185 0.2457 0.250239
19581 1 0.338072 0.571558 0.275172
19582 1 0.380333 0.585875 0.250257
19583 1 0.366216 0.911549 0.275183
20125 1 0.323961 0.396968 0.300111
20126 1 0.352096 0.736569 0.300111
20128 1 0.380244 0.0772663 0.300125
20131 1 0.323961 0.896968 0.300111
20132 1 0.352096 0.236569 0.300111
20134 1 0.380244 0.577266 0.300125
20144 1 0.436578 0.262483 0.300197
20143 1 0.408406 0.919214 0.300155
19578 1 0.39437 0.752512 0.275207
19584 1 0.39437 0.252512 0.275207
19585 1 0.408486 0.426851 0.250283
19586 1 0.436642 0.768583 0.250314
19587 1 0.422531 0.0944888 0.275241
19591 1 0.408486 0.926851 0.250283
19592 1 0.436642 0.268583 0.250314
19593 1 0.422531 0.594489 0.275241
20137 1 0.408406 0.419214 0.300155
20138 1 0.436578 0.762483 0.300197
20146 1 0.464757 0.606959 0.30024
19588 1 0.464799 0.110939 0.250342
19589 1 0.450697 0.437416 0.275279
19590 1 0.478865 0.781075 0.275309
19594 1 0.464799 0.610939 0.250342
19595 1 0.450697 0.937416 0.275279
19596 1 0.478865 0.281075 0.275309
20140 1 0.464757 0.106959 0.30024
19597 1 0.492955 0.453709 0.250359
19603 1 0.492955 0.953709 0.250359
20149 1 0.49294 0.452302 0.300267
20155 1 0.49294 0.952302 0.300267
20640 3 0.0566827 0.188114 0.3751
20639 3 0.0285356 0.853569 0.3751
20638 3 0.0426091 0.524682 0.35012
20634 3 0.0566827 0.688113 0.3751
20633 3 0.0285356 0.353569 0.3751
20632 3 0.0426091 0.0246825 0.35012
20082 3 0.0566827 0.695905 0.32514
20088 3 0.0566827 0.195906 0.32514
20651 1 0.113093 0.857075 0.375085
20650 1 0.127195 0.528987 0.350139
20649 1 0.0849836 0.522424 0.375063
20648 1 0.099118 0.193905 0.350125
20647 1 0.070839 0.859753 0.350027
20645 1 0.113093 0.357075 0.375085
20644 1 0.127195 0.0289866 0.350139
20643 1 0.0849836 0.0224238 0.375063
20642 1 0.099118 0.693905 0.350125
20641 1 0.0708391 0.359753 0.350027
20091 1 0.0851441 0.030117 0.325174
20093 1 0.113207 0.36555 0.325172
20097 1 0.0851441 0.530117 0.325174
20099 1 0.113207 0.86555 0.325172
20661 1 0.169312 0.527274 0.375094
20660 1 0.183375 0.200115 0.350122
20659 1 0.155282 0.864389 0.350133
20655 1 0.169312 0.0272742 0.375094
20654 1 0.183375 0.700115 0.350122
20653 1 0.155282 0.364389 0.350133
20652 1 0.141209 0.192015 0.375099
20646 1 0.141209 0.692015 0.375099
20094 1 0.14127 0.701093 0.325168
20100 1 0.14127 0.201093 0.325168
20103 1 0.169345 0.0369386 0.325163
20109 1 0.169345 0.536939 0.325163
20673 1 0.253596 0.534987 0.375032
20671 1 0.239565 0.872562 0.35008
20667 1 0.253596 0.0349866 0.375032
20665 1 0.239565 0.372561 0.35008
20664 1 0.225503 0.198698 0.375059
20663 1 0.197409 0.862817 0.375079
20662 1 0.211469 0.536149 0.350104
20658 1 0.225503 0.698698 0.375059
20657 1 0.197409 0.362817 0.375079
20656 1 0.211469 0.0361485 0.350104
20105 1 0.197439 0.373098 0.325151
20106 1 0.225537 0.709571 0.325132
20111 1 0.197439 0.873098 0.325151
20112 1 0.225537 0.209571 0.325132
20115 1 0.253638 0.046467 0.325108
20121 1 0.253638 0.546467 0.325108
20676 1 0.309784 0.209302 0.374971
20675 1 0.281689 0.871799 0.375002
20674 1 0.295763 0.546959 0.350025
20672 1 0.267662 0.209449 0.350053
20670 1 0.309784 0.709302 0.374971
20669 1 0.281689 0.371799 0.375002
20668 1 0.295763 0.0469586 0.350025
20666 1 0.267662 0.709449 0.350053
20117 1 0.281743 0.383913 0.325083
20118 1 0.309855 0.722057 0.325062
20123 1 0.281743 0.883913 0.325083
20124 1 0.309855 0.222057 0.325062
20687 1 0.365996 0.887408 0.374917
20686 1 0.380125 0.565412 0.349979
20685 1 0.337884 0.547726 0.37494
20684 1 0.351989 0.22465 0.349983
20683 1 0.323871 0.885277 0.35
20681 1 0.365996 0.387408 0.374917
20680 1 0.380125 0.0654116 0.349979
20679 1 0.337884 0.047726 0.37494
20678 1 0.351989 0.72465 0.349983
20677 1 0.323871 0.385277 0.35
20127 1 0.337978 0.0610896 0.325048
20129 1 0.366113 0.401242 0.325047
20133 1 0.337978 0.56109 0.325048
20135 1 0.366113 0.901242 0.325047
20697 1 0.422292 0.57273 0.37492
20696 1 0.436471 0.252897 0.350038
20695 1 0.408284 0.908006 0.349997
20691 1 0.422292 0.0727304 0.37492
20690 1 0.436471 0.752896 0.350038
20689 1 0.408284 0.408006 0.349997
20688 1 0.394128 0.228839 0.374908
20682 1 0.394128 0.728839 0.374908
20145 1 0.422439 0.585999 0.3251
20130 1 0.394267 0.742791 0.325064
20136 1 0.394267 0.242791 0.325064
20139 1 0.422439 0.0859993 0.3251
20700 1 0.478755 0.271235 0.375028
20699 1 0.450502 0.92003 0.374964
20698 1 0.464685 0.600353 0.350095
20694 1 0.478755 0.771235 0.375028
20693 1 0.450502 0.42003 0.374964
20692 1 0.464685 0.100353 0.350095
20148 1 0.478827 0.277581 0.325195
20147 1 0.450628 0.930993 0.32515
20142 1 0.478827 0.777582 0.325195
20141 1 0.450628 0.430994 0.32515
20707 1 0.492913 0.949918 0.350137
20701 1 0.492913 0.449918 0.350137
21192 1 0.0569844 0.178764 0.425124
21191 3 0.0285356 0.845777 0.42506
21190 3 0.0426091 0.516863 0.40008
21188 3 0.014462 0.18259 0.40008
21186 1 0.0569844 0.678763 0.425124
21185 3 0.0285356 0.345776 0.42506
21184 3 0.0426091 0.0168634 0.40008
21182 3 0.014462 0.682589 0.40008
21203 1 0.113139 0.847462 0.425043
21202 1 0.127163 0.519616 0.400061
21201 1 0.0850674 0.513216 0.425069
21200 1 0.0990735 0.184936 0.400047
21199 1 0.0710867 0.85068 0.400113
21197 1 0.113139 0.347462 0.425043
21196 1 0.127163 0.0196164 0.400061
21195 1 0.0850674 0.0132162 0.425069
21194 1 0.0990735 0.684936 0.400047
21193 1 0.0710867 0.35068 0.400113
21213 1 0.169318 0.516596 0.425033
21212 1 0.183358 0.18962 0.400056
21211 1 0.155259 0.854531 0.400064
21207 1 0.169318 0.0165961 0.425033
21206 1 0.183358 0.68962 0.400056
21205 1 0.155259 0.354531 0.400064
21204 1 0.141221 0.181939 0.425039
21198 1 0.141221 0.681939 0.425039
21225 1 0.253601 0.521777 0.424977
21223 1 0.239546 0.86062 0.400016
21219 1 0.253601 0.021777 0.424977
21217 1 0.239546 0.36062 0.400016
21216 1 0.22551 0.186445 0.425002
21215 1 0.197415 0.851411 0.42502
21214 1 0.211454 0.524958 0.400039
21210 1 0.22551 0.686445 0.425002
21209 1 0.197415 0.351411 0.42502
21208 1 0.211454 0.0249578 0.400039
21228 1 0.30977 0.193777 0.424915
21227 1 0.281689 0.857505 0.424948
21226 1 0.295723 0.533329 0.399955
21224 1 0.267636 0.1967 0.399988
21222 1 0.30977 0.693777 0.424915
21221 1 0.281689 0.357505 0.424948
21220 1 0.295723 0.0333288 0.399955
21218 1 0.267636 0.6967 0.399988
21239 1 0.365923 0.869019 0.424838
21238 1 0.379999 0.549024 0.399854
21237 1 0.337848 0.530826 0.424879
21236 1 0.3519 0.209118 0.399885
21235 1 0.32381 0.8707 0.399921
21233 1 0.365923 0.369019 0.424838
21232 1 0.379999 0.0490242 0.399854
21231 1 0.337848 0.0308257 0.424879
21230 1 0.3519 0.709118 0.399885
21229 1 0.32381 0.3707 0.399921
21249 1 0.4221 0.55155 0.424752
21248 1 0.436285 0.236663 0.399828
21247 1 0.408121 0.891126 0.399831
21243 1 0.4221 0.0515503 0.424752
21242 1 0.436285 0.736663 0.399828
21241 1 0.408121 0.391126 0.399831
21240 1 0.394003 0.208928 0.424796
21234 1 0.394003 0.708928 0.424796
21252 1 0.478558 0.25676 0.424746
21251 1 0.450247 0.89923 0.424705
21250 1 0.464528 0.587697 0.39987
21246 1 0.478558 0.756761 0.424746
21245 1 0.450247 0.39923 0.424705
21244 1 0.464528 0.0876963 0.39987
21259 1 0.492855 0.945045 0.399941
21253 1 0.492855 0.445044 0.399941
21744 1 0.0570086 0.170769 0.475004
21743 3 0.0285356 0.837737 0.47502
21742 3 0.0426091 0.5087 0.45004
21741 3 0.00038843 0.504158 0.47502
21740 3 0.014462 0.174872 0.45004
21738 1 0.0570086 0.670769 0.475004
21737 3 0.0285356 0.337737 0.47502
21736 3 0.0426091 0.00870033 0.45004
21735 3 0.00038843 0.00415892 0.47502
21734 3 0.014462 0.674871 0.45004
22286 3 0.014462 0.666996 0.5
22292 3 0.014462 0.166997 0.5
22294 1 0.0429274 0.49974 0.499996
22288 1 0.0429274 0.99974 0.499996
21755 1 0.113149 0.837733 0.475008
21754 1 0.127185 0.509683 0.450023
21753 1 0.0850485 0.50414 0.475007
21752 1 0.0990913 0.175734 0.450036
21751 1 0.0709888 0.841962 0.450045
21749 1 0.113149 0.337733 0.475008
21748 1 0.127185 0.00968254 0.450023
21747 1 0.0850485 0.00413952 0.475007
21746 1 0.0990913 0.675734 0.450036
21745 1 0.0709888 0.341962 0.450045
22300 1 0.127215 0.999409 0.499981
22306 1 0.127215 0.499409 0.499981
22304 1 0.0991147 0.166087 0.499993
22303 1 0.071017 0.832905 0.499999
22298 1 0.0991147 0.666087 0.499993
22297 1 0.071017 0.332905 0.499999
21765 1 0.169356 0.505248 0.474985
21764 1 0.183384 0.178142 0.450002
21763 1 0.155284 0.84385 0.450014
21759 1 0.169356 0.0052483 0.474985
21758 1 0.183384 0.678142 0.450002
21757 1 0.155284 0.34385 0.450014
21756 1 0.141251 0.171457 0.474997
21750 1 0.141251 0.671457 0.474997
22309 1 0.155327 0.332768 0.499967
22310 1 0.183439 0.666105 0.499953
22315 1 0.155327 0.832768 0.499967
22316 1 0.183439 0.166105 0.499953
21777 1 0.253668 0.507018 0.474935
21775 1 0.239581 0.847171 0.449967
21771 1 0.253668 0.00701801 0.474935
21769 1 0.239581 0.347171 0.449967
21768 1 0.225567 0.173017 0.474954
21767 1 0.197462 0.839101 0.474971
21766 1 0.211484 0.51257 0.449987
21762 1 0.225567 0.673017 0.474954
21761 1 0.197462 0.339101 0.474971
21760 1 0.211484 0.0125702 0.449987
22312 1 0.211552 0.99941 0.499938
22318 1 0.211552 0.49941 0.499938
22321 1 0.239663 0.332673 0.499923
22327 1 0.239663 0.832673 0.499923
21780 1 0.309854 0.175426 0.474892
21779 1 0.281765 0.841133 0.474914
21778 1 0.295759 0.517175 0.449916
21776 1 0.267673 0.18201 0.449943
21774 1 0.309854 0.675426 0.474892
21773 1 0.281765 0.341133 0.474914
21772 1 0.295759 0.0171744 0.449916
21770 1 0.267673 0.68201 0.449943
22322 1 0.267772 0.66587 0.499907
22324 1 0.295876 0.998982 0.499891
22328 1 0.267772 0.165871 0.499907
22330 1 0.295876 0.498982 0.499891
21791 1 0.366002 0.845103 0.47484
21790 1 0.379966 0.526724 0.449808
21789 1 0.337935 0.510018 0.474867
21788 1 0.351907 0.189196 0.44985
21787 1 0.323838 0.85282 0.449885
21785 1 0.366002 0.345103 0.47484
21784 1 0.379966 0.0267242 0.449808
21783 1 0.337935 0.0100186 0.474867
21782 1 0.351907 0.689196 0.44985
21781 1 0.323838 0.35282 0.449885
22333 1 0.323975 0.332006 0.499876
22334 1 0.352066 0.664914 0.499863
22336 1 0.380145 0.997594 0.499855
22339 1 0.323975 0.832006 0.499876
22340 1 0.352066 0.164914 0.499863
22342 1 0.380145 0.497594 0.499855
21801 1 0.422049 0.518267 0.474761
21800 1 0.436059 0.20876 0.44968
21799 1 0.408015 0.866126 0.449755
21795 1 0.422049 0.0182668 0.474761
21794 1 0.436059 0.70876 0.449681
21793 1 0.408015 0.366125 0.449755
21792 1 0.394045 0.180994 0.474807
21786 1 0.394045 0.680994 0.474807
22345 1 0.408204 0.329753 0.499853
22346 1 0.436238 0.660518 0.49987
22351 1 0.408204 0.829752 0.499853
22352 1 0.436238 0.160519 0.49987
22354 1 0.464318 0.487529 0.49994
22348 1 0.464318 0.987529 0.49994
21805 1 0.492656 0.42959 0.449636
21811 1 0.492656 0.92959 0.449636
21796 1 0.464172 0.0591626 0.449558
21797 1 0.450011 0.358189 0.474694
21804 1 0.478062 0.208639 0.474535
21803 1 0.450011 0.858189 0.474694
21802 1 0.464172 0.559163 0.449558
21798 1 0.478062 0.708638 0.474535
22287 3 0.00038843 0.996481 0.52498
22289 3 0.0285356 0.329606 0.52498
22290 1 0.0570133 0.66212 0.524996
22293 3 0.00038843 0.49648 0.52498
22295 3 0.0285356 0.829607 0.52498
22296 1 0.0570133 0.16212 0.524996
22838 3 0.014462 0.659115 0.54996
22840 3 0.0426091 0.991992 0.54996
22844 3 0.014462 0.159115 0.54996
22846 3 0.0426091 0.491991 0.54996
22299 1 0.0850625 0.994816 0.524987
22301 1 0.113176 0.327748 0.524965
22305 1 0.0850625 0.494816 0.524987
22307 1 0.113176 0.827748 0.524965
22849 1 0.0710064 0.324081 0.549958
22850 1 0.0991309 0.656528 0.549947
22852 1 0.127253 0.989099 0.54993
22855 1 0.0710064 0.824081 0.549958
22856 1 0.0991309 0.156528 0.549947
22858 1 0.127253 0.489099 0.54993
22302 1 0.141292 0.66072 0.524949
22308 1 0.141292 0.16072 0.524949
22311 1 0.169411 0.993623 0.524933
22317 1 0.169411 0.493623 0.524933
22861 1 0.155378 0.321649 0.549913
22862 1 0.183504 0.654032 0.549897
22867 1 0.155378 0.821649 0.549913
22868 1 0.183504 0.154032 0.549897
22313 1 0.197532 0.326412 0.524919
22314 1 0.225652 0.65906 0.524905
22319 1 0.197532 0.826412 0.524919
22320 1 0.225652 0.15906 0.524905
22323 1 0.253771 0.99151 0.524892
22329 1 0.253771 0.49151 0.524892
22864 1 0.21163 0.986194 0.549884
22870 1 0.21163 0.486194 0.549884
22873 1 0.239757 0.318075 0.549872
22879 1 0.239757 0.818075 0.549872
22325 1 0.281888 0.323686 0.524881
22326 1 0.310003 0.655499 0.524873
22331 1 0.281888 0.823686 0.524881
22332 1 0.310003 0.155499 0.524873
22874 1 0.267883 0.649567 0.549864
22876 1 0.296009 0.980539 0.54986
22880 1 0.267883 0.149567 0.549864
22882 1 0.296009 0.480539 0.54986
22335 1 0.338115 0.986791 0.52487
22337 1 0.366223 0.31723 0.524877
22341 1 0.338115 0.486791 0.52487
22343 1 0.366223 0.81723 0.524877
22885 1 0.324134 0.310796 0.549863
22886 1 0.352256 0.639966 0.549877
22888 1 0.380375 0.96743 0.549912
22891 1 0.324134 0.810796 0.549863
22892 1 0.352256 0.139966 0.549877
22894 1 0.380375 0.46743 0.549912
22338 1 0.394327 0.646161 0.524901
22344 1 0.394327 0.146161 0.524901
22347 1 0.422428 0.972162 0.524962
22353 1 0.422428 0.472162 0.524962
22897 1 0.408489 0.292051 0.549984
22898 1 0.436601 0.611801 0.550123
22903 1 0.408489 0.792052 0.549984
22904 1 0.436601 0.111801 0.550123
22915 1 0.492866 0.72555 0.550777
22909 1 0.492866 0.22555 0.550777
22349 1 0.450549 0.291916 0.525096
22350 1 0.478689 0.596199 0.525453
22355 1 0.450549 0.791917 0.525096
22356 1 0.478689 0.0961984 0.525453
22900 1 0.464708 0.923324 0.550413
22906 1 0.464708 0.423324 0.550413
22363 1 0.492588 0.791792 0.50022
22357 1 0.492588 0.291792 0.50022
22841 3 0.0285356 0.321553 0.57494
22842 1 0.0570042 0.652886 0.574888
22847 3 0.0285356 0.821553 0.57494
22848 1 0.0570042 0.152886 0.574888
23390 3 0.014462 0.651378 0.59992
23392 3 0.0426091 0.983807 0.59992
23393 3 0.0285356 0.313734 0.6249
23394 1 0.0567535 0.646249 0.624957
23396 3 0.014462 0.151379 0.59992
23398 3 0.0426091 0.483806 0.59992
23399 3 0.0285356 0.813735 0.6249
23400 1 0.0567535 0.146249 0.624957
22851 1 0.0851058 0.985502 0.574932
22853 1 0.113221 0.317892 0.574911
22857 1 0.0851058 0.485502 0.574932
22859 1 0.113221 0.817892 0.574911
23401 1 0.0710948 0.31529 0.599924
23402 1 0.099165 0.647196 0.5999
23403 1 0.0851198 0.97712 0.624874
23404 1 0.127295 0.979175 0.599871
23405 1 0.113248 0.308712 0.624846
23407 1 0.0710948 0.81529 0.599924
23408 1 0.099165 0.147196 0.5999
23409 1 0.0851198 0.47712 0.624874
23410 1 0.127295 0.479175 0.599871
23411 1 0.113248 0.808712 0.624846
22854 1 0.141339 0.650158 0.574892
22860 1 0.141339 0.150158 0.574892
22863 1 0.169468 0.982241 0.574875
22869 1 0.169468 0.482241 0.574875
23406 1 0.141372 0.640267 0.62483
23412 1 0.141372 0.140267 0.62483
23413 1 0.155423 0.311003 0.599852
23414 1 0.183554 0.64255 0.599837
23415 1 0.169502 0.971636 0.624815
23419 1 0.155423 0.811003 0.599852
23420 1 0.183554 0.14255 0.599837
23421 1 0.169502 0.471636 0.624815
22865 1 0.197597 0.314046 0.57486
22866 1 0.225729 0.645515 0.574849
22871 1 0.197597 0.814046 0.57486
22872 1 0.225729 0.145515 0.574849
22875 1 0.25386 0.976543 0.574842
22881 1 0.25386 0.476543 0.574842
23416 1 0.211687 0.973741 0.599825
23417 1 0.197634 0.302653 0.624801
23418 1 0.225769 0.633218 0.624792
23422 1 0.211687 0.473741 0.599825
23423 1 0.197634 0.802653 0.624801
23424 1 0.225769 0.133218 0.624792
23425 1 0.239821 0.304476 0.599817
23427 1 0.253904 0.963207 0.62479
23431 1 0.239821 0.804476 0.599817
23433 1 0.253904 0.463207 0.62479
22877 1 0.281992 0.306979 0.57484
22878 1 0.310122 0.63664 0.574846
22883 1 0.281992 0.806979 0.57484
22884 1 0.310122 0.13664 0.574846
23426 1 0.267956 0.634612 0.599816
23428 1 0.296089 0.963972 0.599824
23429 1 0.282038 0.292467 0.624797
23430 1 0.310169 0.62082 0.624816
23432 1 0.267956 0.134612 0.599816
23434 1 0.296089 0.463972 0.599824
23435 1 0.282038 0.792467 0.624797
23436 1 0.310169 0.12082 0.624816
22887 1 0.338251 0.965208 0.574864
22889 1 0.366375 0.292185 0.574902
22893 1 0.338251 0.465208 0.574864
22895 1 0.366375 0.792185 0.574902
23437 1 0.324219 0.292325 0.599843
23438 1 0.352344 0.619305 0.599881
23439 1 0.338294 0.948018 0.624853
23440 1 0.380462 0.944411 0.599947
23441 1 0.366412 0.273734 0.624912
23443 1 0.324219 0.792326 0.599843
23444 1 0.352344 0.119305 0.599881
23445 1 0.338294 0.448018 0.624853
23446 1 0.380462 0.444411 0.599947
23447 1 0.366412 0.773734 0.624912
22890 1 0.394492 0.616809 0.574973
22896 1 0.394492 0.116809 0.574973
22899 1 0.422602 0.937946 0.575096
22905 1 0.422602 0.437946 0.575096
23442 1 0.394523 0.597607 0.625001
23448 1 0.394523 0.0976069 0.625001
23449 1 0.408571 0.267018 0.600051
23450 1 0.436675 0.586527 0.600208
23451 1 0.422629 0.919353 0.625125
23455 1 0.408571 0.767018 0.600051
23456 1 0.436675 0.0865274 0.600208
23457 1 0.422629 0.419353 0.625125
23467 1 0.492942 0.717744 0.600524
23461 1 0.492942 0.217744 0.600524
22901 1 0.450705 0.254224 0.575304
22902 1 0.478829 0.565592 0.575563
22907 1 0.450705 0.754224 0.575304
22908 1 0.478829 0.0655928 0.575563
23452 1 0.46479 0.902999 0.600396
23453 1 0.450742 0.239033 0.62527
23454 1 0.478875 0.557285 0.625394
23458 1 0.46479 0.402999 0.600396
23459 1 0.450742 0.739034 0.62527
23460 1 0.478875 0.0572847 0.625394
23944 3 0.0426091 0.975954 0.64988
23945 3 0.0285356 0.306283 0.67486
23946 3 0.0566827 0.638058 0.67486
23950 3 0.0426091 0.475953 0.64988
23951 3 0.0285356 0.806283 0.67486
23952 3 0.0566827 0.138058 0.67486
23953 1 0.0711036 0.306698 0.649824
23954 1 0.0992149 0.638529 0.649823
23955 1 0.0851941 0.969044 0.674789
23956 1 0.127322 0.970001 0.649811
23957 1 0.113232 0.300247 0.674802
23959 1 0.0711036 0.806698 0.649824
23960 1 0.0992149 0.138529 0.649823
23961 1 0.0851941 0.469044 0.674789
23962 1 0.127322 0.470001 0.649811
23963 1 0.113232 0.800247 0.674802
23958 1 0.141356 0.631383 0.674777
23964 1 0.141356 0.131383 0.674777
23965 1 0.155437 0.301242 0.649795
23966 1 0.18357 0.632174 0.649777
23967 1 0.169489 0.962252 0.674754
23971 1 0.155437 0.801242 0.649795
23972 1 0.18357 0.132174 0.649777
23973 1 0.169489 0.462252 0.674754
23968 1 0.211705 0.962657 0.649766
23969 1 0.197631 0.292703 0.674738
23970 1 0.225769 0.622631 0.674732
23974 1 0.211705 0.462657 0.649766
23975 1 0.197631 0.792703 0.674738
23976 1 0.225769 0.122631 0.674732
23977 1 0.239841 0.292591 0.649762
23979 1 0.253904 0.95196 0.674737
23983 1 0.239841 0.792591 0.649762
23985 1 0.253904 0.45196 0.674737
23978 1 0.267975 0.621862 0.649769
23980 1 0.296106 0.950328 0.649786
23981 1 0.282035 0.280595 0.674754
23982 1 0.310162 0.608409 0.674783
23984 1 0.267975 0.121862 0.649769
23986 1 0.296106 0.450328 0.649786
23987 1 0.282035 0.780595 0.674754
23988 1 0.310162 0.108409 0.674783
23989 1 0.324232 0.277824 0.649819
23990 1 0.352351 0.604136 0.649872
23991 1 0.338283 0.935259 0.674829
23992 1 0.380464 0.929051 0.649948
23993 1 0.366399 0.261014 0.674893
23995 1 0.324232 0.777824 0.649819
23996 1 0.352351 0.104136 0.649872
23997 1 0.338283 0.435259 0.674829
23998 1 0.380464 0.429051 0.649948
23999 1 0.366399 0.761014 0.674893
23994 1 0.394512 0.585593 0.674977
24000 1 0.394512 0.0855926 0.674977
24001 1 0.408574 0.252414 0.650049
24002 1 0.436686 0.574269 0.650167
24003 1 0.422627 0.909019 0.675075
24007 1 0.408574 0.752414 0.650049
24008 1 0.436686 0.0742687 0.650167
24009 1 0.422627 0.409019 0.675075
24019 1 0.492953 0.715004 0.650344
24013 1 0.492953 0.215004 0.650345
24004 1 0.464811 0.894962 0.650277
24005 1 0.450749 0.231492 0.675172
24006 1 0.478884 0.553344 0.675244
24010 1 0.464811 0.394962 0.650277
24011 1 0.450749 0.731492 0.675172
24012 1 0.478884 0.0533441 0.675244
24496 3 0.0426091 0.968555 0.69984
24498 3 0.0566827 0.630762 0.72482
24502 3 0.0426091 0.468554 0.69984
24504 3 0.0566827 0.130763 0.72482
25066 1 0.127219 0.454684 0.749649
25064 3 0.0989034 0.123964 0.7498
25063 3 0.0707563 0.792934 0.7498
24505 3 0.0707563 0.300074 0.69984
24506 1 0.0991133 0.631192 0.699762
24507 3 0.0848298 0.962032 0.72482