ITEM: TIMESTEP
95
ITEM: NUMBER OF ATOMS
2346
ITEM: BOX BOUNDS ss pp ss
-4.0826385614000003e+01 4.0826373535000002e+01
-4.1208122699999999e-01 4.5329187729999996e+00
-4.1753968929999999e+01 4.1081016622000000e+01
ITEM: ATOMS id type xs ys zs
17356 3 0.285883 0.0904331 0.0491324
17362 3 0.285883 0.590433 0.0491324
17365 3 0.314432 0.427911 0.0491324
17371 3 0.314432 0.927911 0.0491324
16817 3 0.357255 0.43561 0.0247612
16818 3 0.385804 0.77331 0.0247612
16823 3 0.357255 0.935611 0.0247612
16824 3 0.385804 0.273311 0.0247612
17366 3 0.342981 0.76557 0.0491324
17368 3 0.37153 0.103396 0.0491324
17372 3 0.342981 0.265571 0.0491324
17374 3 0.37153 0.603395 0.0491324
16827 3 0.414353 0.111126 0.0247612
16829 3 0.442902 0.449031 0.0247612
16833 3 0.414353 0.611126 0.0247612
16835 3 0.442902 0.949032 0.0247612
17377 3 0.400079 0.441366 0.0491324
17378 1 0.428748 0.77933 0.0492004
17383 3 0.400079 0.941367 0.0491324
17384 1 0.428748 0.27933 0.0492004
16828 3 0.457177 0.118347 0.00038994
16830 3 0.471451 0.787 0.0247612
16834 3 0.457177 0.618346 0.00038994
16836 3 0.471451 0.287001 0.0247612
17380 1 0.457299 0.118549 0.0494742
17386 1 0.457299 0.618549 0.0494742
16837 3 0.485726 0.456111 0.00038994
16839 3 0.5 0.125001 0.0247612
16843 3 0.485726 0.956111 0.00038994
16845 3 0.5 0.625 0.0247612
17389 1 0.485807 0.456091 0.0495141
17395 1 0.485807 0.956091 0.0495141
17897 3 0.185962 0.40412 0.122246
17903 3 0.185962 0.904121 0.122246
17355 3 0.24306 0.0826868 0.0735036
17361 3 0.24306 0.582686 0.0735036
17896 3 0.200236 0.0749528 0.0978748
17898 3 0.214511 0.741123 0.122246
17902 3 0.200236 0.574952 0.0978748
17904 3 0.214511 0.241123 0.122246
17905 3 0.228785 0.412011 0.0978748
17906 3 0.257334 0.749315 0.0978748
17907 1 0.243251 0.0787951 0.122471
17911 3 0.228785 0.912011 0.0978748
17912 3 0.257334 0.249315 0.0978748
17913 1 0.243251 0.578795 0.122471
17357 3 0.271609 0.419994 0.0735036
17358 3 0.300158 0.757521 0.0735036
17363 3 0.271609 0.919994 0.0735036
17364 3 0.300158 0.257521 0.0735036
17908 1 0.285981 0.0873376 0.098161
17909 1 0.2718 0.416237 0.12258
17910 1 0.300304 0.7539 0.122479
17914 1 0.285981 0.587338 0.098161
17915 1 0.2718 0.916237 0.12258
17916 1 0.300304 0.2539 0.122479
17917 1 0.314603 0.424786 0.0981533
17923 1 0.314603 0.924786 0.0981532
17367 1 0.328795 0.0945692 0.0735302
17369 1 0.357397 0.43391 0.0738222
17370 1 0.385963 0.771548 0.0738392
17373 1 0.328795 0.594569 0.0735302
17375 1 0.357397 0.93391 0.0738222
17376 1 0.385963 0.271548 0.0738392
17918 1 0.343116 0.762715 0.0981168
17919 1 0.328832 0.0918622 0.122454
17920 1 0.371666 0.101194 0.0981448
17921 1 0.357363 0.430104 0.12247
17922 1 0.385908 0.768722 0.122477
17924 1 0.343116 0.262715 0.0981168
17925 1 0.328832 0.591862 0.122454
17926 1 0.371666 0.601194 0.0981448
17927 1 0.357363 0.930104 0.12247
17928 1 0.385908 0.268722 0.122477
17379 1 0.414466 0.109563 0.0736751
17381 1 0.443002 0.448209 0.0737849
17385 1 0.414466 0.609563 0.0736751
17387 1 0.443002 0.948209 0.0737849
17929 1 0.400204 0.439541 0.0980897
17930 1 0.428698 0.777806 0.0980878
17931 1 0.414427 0.107336 0.122471
17933 1 0.442939 0.446051 0.122501
17935 1 0.400204 0.939541 0.0980897
17936 1 0.428698 0.277806 0.0980878
17937 1 0.414427 0.607336 0.122471
17939 1 0.442939 0.946051 0.122501
17382 1 0.471514 0.786651 0.0738443
17388 1 0.471514 0.286651 0.0738443
17932 1 0.457219 0.116502 0.0981705
17934 1 0.471466 0.785017 0.122548
17938 1 0.457219 0.616502 0.0981705
17940 1 0.471466 0.285017 0.122548
17941 1 0.485742 0.455063 0.098217
17947 1 0.485742 0.955063 0.098217
17397 1 0.5 0.624557 0.0738525
17943 1 0.499997 0.124002 0.122568
17391 1 0.5 0.124557 0.0738525
17949 1 0.499997 0.624002 0.122568
18438 3 0.128864 0.725439 0.170988
18444 3 0.128864 0.225439 0.170988
18445 3 0.143139 0.39647 0.146617
18446 3 0.171687 0.733115 0.146617
18447 3 0.157413 0.061952 0.170988
18449 1 0.186158 0.399196 0.171241
18451 3 0.143139 0.896471 0.146617
18452 3 0.171687 0.233115 0.146617
18453 3 0.157413 0.561951 0.170988
18455 1 0.186158 0.899196 0.171241
18448 1 0.200198 0.0689232 0.146693
18450 1 0.214633 0.735627 0.171193
18454 1 0.200198 0.568923 0.146693
18456 1 0.214633 0.235627 0.171193
18457 1 0.228929 0.407209 0.14689
18458 1 0.25745 0.744793 0.14685
18459 1 0.24315 0.0730812 0.171176
18463 1 0.228929 0.907209 0.14689
18464 1 0.25745 0.244793 0.14685
18465 1 0.24315 0.573081 0.171176
18460 1 0.28601 0.0826304 0.146849
18461 1 0.271697 0.410775 0.171175
18462 1 0.300241 0.748779 0.171165
18466 1 0.28601 0.58263 0.146849
18467 1 0.271697 0.910775 0.171175
18468 1 0.300241 0.248779 0.171165
18469 1 0.314543 0.420517 0.146819
18475 1 0.314543 0.920517 0.146819
18470 1 0.343072 0.758773 0.146811
18471 1 0.328776 0.0870181 0.171157
18472 1 0.371608 0.0973931 0.14682
18473 1 0.357312 0.425649 0.171164
18474 1 0.385849 0.764666 0.171181
18476 1 0.343072 0.258773 0.146811
18477 1 0.328776 0.587018 0.171157
18478 1 0.371608 0.597393 0.14682
18479 1 0.357312 0.925649 0.171164
18480 1 0.385849 0.264666 0.171181
18481 1 0.400141 0.436268 0.146832
18482 1 0.428666 0.775279 0.146854
18483 1 0.414383 0.103973 0.171204
18485 1 0.442916 0.443535 0.171233
18487 1 0.400141 0.936267 0.146832
18488 1 0.428666 0.275279 0.146854
18489 1 0.414383 0.603973 0.171204
18491 1 0.442916 0.943535 0.171233
18484 1 0.457192 0.114507 0.146888
18486 1 0.471452 0.783339 0.171261
18490 1 0.457192 0.614506 0.146888
18492 1 0.471452 0.283339 0.171261
18493 1 0.485727 0.453933 0.146916
18499 1 0.485727 0.953933 0.146916
18495 1 0.499991 0.123329 0.171276
18501 1 0.499991 0.623329 0.171276
18988 3 0.11459 0.0543008 0.19536
18989 3 0.100315 0.38308 0.219731
18990 1 0.128891 0.719146 0.219755
18994 3 0.11459 0.5543 0.19536
18995 3 0.100315 0.88308 0.219731
18996 1 0.128891 0.219146 0.219755
19538 3 0.0860407 0.711806 0.244102
19540 1 0.114618 0.0476276 0.244127
19544 3 0.0860407 0.211807 0.244102
19546 1 0.114618 0.547628 0.244127
18997 3 0.143139 0.390652 0.19536
18998 1 0.171903 0.727324 0.195624
18999 1 0.157561 0.0554435 0.219869
19001 1 0.186065 0.3923 0.21989
19003 3 0.143139 0.890652 0.19536
19004 1 0.171903 0.227324 0.195624
19005 1 0.157561 0.555444 0.219869
19007 1 0.186065 0.8923 0.21989
19549 1 0.143288 0.383704 0.244217
19550 1 0.171759 0.720117 0.244201
19555 1 0.143288 0.883704 0.244217
19556 1 0.171759 0.220117 0.244201
19000 1 0.200379 0.0642078 0.195562
19002 1 0.214594 0.729226 0.219877
19006 1 0.200379 0.564208 0.195562
19008 1 0.214594 0.229226 0.219877
19009 1 0.228881 0.401185 0.19552
19010 1 0.257402 0.738703 0.195505
19011 1 0.24311 0.0664625 0.219848
19015 1 0.228881 0.901185 0.19552
19016 1 0.257402 0.238703 0.195505
19017 1 0.24311 0.566462 0.219848
19552 1 0.200289 0.0569792 0.24421
19558 1 0.200289 0.556979 0.24421
19561 1 0.228812 0.394052 0.244194
19562 1 0.257339 0.731477 0.244178
19567 1 0.228812 0.894052 0.244194
19568 1 0.257339 0.231477 0.244178
19012 1 0.285936 0.0765801 0.195499
19013 1 0.271638 0.404122 0.219836
19014 1 0.300172 0.74225 0.219834
19018 1 0.285936 0.57658 0.195499
19019 1 0.271638 0.904122 0.219836
19020 1 0.300172 0.242249 0.219834
19021 1 0.314476 0.414826 0.195499
19027 1 0.314476 0.914826 0.195499
19564 1 0.285868 0.0693752 0.244169
19570 1 0.285868 0.569375 0.244169
19573 1 0.314403 0.407806 0.24417
19579 1 0.314403 0.907805 0.24417
19022 1 0.343014 0.753477 0.195504
19023 1 0.32871 0.0808494 0.219838
19024 1 0.371553 0.0925726 0.195519
19025 1 0.357251 0.419957 0.219852
19026 1 0.385794 0.759588 0.219875
19028 1 0.343014 0.253476 0.195504
19029 1 0.32871 0.58085 0.219838
19030 1 0.371553 0.592573 0.195519
19031 1 0.357251 0.919957 0.219852
19032 1 0.385794 0.259588 0.219875
19574 1 0.342944 0.746818 0.24418
19576 1 0.371489 0.0864597 0.2442
19580 1 0.342944 0.246819 0.24418
19582 1 0.371489 0.586459 0.2442
19033 1 0.400092 0.432084 0.195544
19034 1 0.428632 0.771965 0.195573
19035 1 0.41434 0.0997179 0.219907
19037 1 0.442887 0.440305 0.219939
19039 1 0.400092 0.932084 0.195544
19040 1 0.428632 0.271965 0.195574
19041 1 0.41434 0.599718 0.219907
19043 1 0.442887 0.940306 0.219939
19585 1 0.400039 0.426736 0.24423
19586 1 0.428591 0.767629 0.244266
19591 1 0.400039 0.926736 0.24423
19592 1 0.428591 0.267628 0.244266
19045 1 0.485716 0.452633 0.195625
19603 1 0.485703 0.950921 0.244326
19594 1 0.457147 0.60907 0.244301
19597 1 0.485703 0.450921 0.244326
19588 1 0.457147 0.10907 0.244301
19051 1 0.485716 0.952633 0.195625
19036 1 0.457173 0.112172 0.195603
19038 1 0.471435 0.781267 0.219967
19042 1 0.457173 0.612172 0.195603
19044 1 0.471435 0.281267 0.219967
19047 1 0.499985 0.122473 0.219983
19053 1 0.499985 0.622473 0.219983
20089 3 0.0574918 0.369219 0.292845
20095 3 0.0574918 0.869219 0.292845
19539 3 0.0717663 0.0405091 0.268473
19541 1 0.100344 0.376113 0.268496
19542 1 0.129015 0.71195 0.268577
19545 3 0.0717663 0.540509 0.268473
19547 1 0.100344 0.876113 0.268496
19548 1 0.129015 0.21195 0.268577
20090 1 0.0860702 0.704607 0.292866
20092 1 0.114743 0.0402008 0.292942
20096 1 0.0860702 0.204607 0.292866
20098 1 0.114743 0.540201 0.292942
19551 1 0.157478 0.0480728 0.268545
19553 1 0.185993 0.38457 0.268542
19557 1 0.157478 0.548073 0.268545
19559 1 0.185993 0.884571 0.268542
20101 1 0.143204 0.37604 0.292902
20102 1 0.171712 0.712193 0.292889
20107 1 0.143204 0.876041 0.292902
20108 1 0.171712 0.212193 0.292889
19554 1 0.214513 0.721429 0.268534
19560 1 0.214513 0.221429 0.268534
19563 1 0.243039 0.0586303 0.268521
19569 1 0.243039 0.558631 0.268521
20104 1 0.200224 0.0487139 0.292877
20110 1 0.200224 0.548714 0.292877
20113 1 0.228744 0.385615 0.292865
20114 1 0.257265 0.722935 0.29285
20119 1 0.228744 0.885615 0.292865
20120 1 0.257265 0.222936 0.29285
19565 1 0.271565 0.396261 0.268508
19566 1 0.300096 0.734419 0.268502
19571 1 0.271565 0.896261 0.268508
19572 1 0.300096 0.23442 0.268502
20116 1 0.28579 0.0607536 0.292839
20122 1 0.28579 0.560753 0.292839
20125 1 0.31432 0.399195 0.292835
20131 1 0.31432 0.899195 0.292835
19575 1 0.328632 0.0732096 0.268506
19577 1 0.357176 0.412714 0.26852
19578 1 0.385727 0.752987 0.268547
19581 1 0.328632 0.573209 0.268506
19583 1 0.357176 0.912714 0.268521
19584 1 0.385727 0.252987 0.268547
20134 1 0.371407 0.578483 0.292859
20126 1 0.342859 0.738403 0.292841
20128 1 0.371407 0.0784828 0.292859
20132 1 0.342859 0.238403 0.292841
20144 1 0.428533 0.261623 0.292933
20143 1 0.399966 0.919543 0.292891
20138 1 0.428533 0.761623 0.292933
20137 1 0.399966 0.419543 0.292891
19587 1 0.414285 0.0940613 0.268583
19589 1 0.442847 0.4359 0.268624
19593 1 0.414285 0.594062 0.268583
19595 1 0.442847 0.9359 0.268624
20146 1 0.457107 0.604664 0.292978
20140 1 0.457107 0.104665 0.292978
19590 1 0.471412 0.778389 0.268659
19596 1 0.471412 0.278389 0.268659
20149 1 0.485683 0.448471 0.293011
20155 1 0.485683 0.948471 0.293011
19605 1 0.499977 0.62131 0.26868
19599 1 0.499977 0.12131 0.26868
20647 3 0.0574918 0.861708 0.341587
20641 3 0.0574918 0.361708 0.341587
20640 3 0.0432173 0.19035 0.365958
20639 3 0.0146684 0.855698 0.365958
20638 3 0.0289429 0.526785 0.341587
20634 3 0.0432173 0.69035 0.365958
20633 3 0.0146684 0.355697 0.365958
20632 3 0.0289429 0.0267858 0.341587
20082 3 0.0432173 0.697968 0.317216
20088 3 0.0432173 0.197969 0.317216
20652 1 0.128936 0.195147 0.365971
20651 1 0.100427 0.860018 0.365988
20650 1 0.114672 0.532025 0.341627
20649 1 0.0719475 0.525082 0.366027
20648 1 0.0861981 0.196781 0.341671
20646 1 0.128936 0.695147 0.365971
20645 1 0.100427 0.360018 0.365988
20644 1 0.114672 0.0320245 0.341627
20643 1 0.0719475 0.0250816 0.366027
20642 1 0.0861981 0.696781 0.341671
20091 1 0.0717951 0.0331415 0.317234
20093 1 0.100471 0.368465 0.317309
20094 1 0.128935 0.704021 0.317264
20097 1 0.0717951 0.533141 0.317234
20099 1 0.100471 0.868465 0.317309
20100 1 0.128935 0.20402 0.317264
20663 1 0.185938 0.866266 0.365935
20661 1 0.157436 0.53056 0.365952
20660 1 0.171685 0.203266 0.341588
20659 1 0.143181 0.867494 0.341607
20657 1 0.185938 0.366266 0.365935
20655 1 0.157436 0.0305606 0.365952
20654 1 0.171685 0.703265 0.341588
20653 1 0.143181 0.367494 0.341607
20103 1 0.157442 0.0398356 0.317246
20105 1 0.185948 0.375984 0.317229
20109 1 0.157442 0.539836 0.317246
20111 1 0.185948 0.875984 0.317229
20673 1 0.242938 0.538767 0.365896
20672 1 0.257207 0.212845 0.341535
20671 1 0.228699 0.875895 0.341554
20667 1 0.242938 0.0387665 0.365896
20666 1 0.257207 0.712846 0.341535
20665 1 0.228699 0.375894 0.341554
20664 1 0.214438 0.20232 0.365916
20662 1 0.200192 0.539381 0.341572
20658 1 0.214438 0.70232 0.365916
20656 1 0.200192 0.0393817 0.341572
20106 1 0.214461 0.71251 0.317215
20112 1 0.214461 0.21251 0.317215
20115 1 0.242975 0.0494515 0.317198
20121 1 0.242975 0.549451 0.317198
20683 1 0.314235 0.888514 0.341504
20677 1 0.314235 0.388514 0.341505
20676 1 0.299943 0.213213 0.365856
20675 1 0.271439 0.875677 0.365875
20674 1 0.285718 0.550329 0.341517
20670 1 0.299943 0.713213 0.365856
20669 1 0.271439 0.375677 0.365875
20668 1 0.285718 0.050328 0.341517
20117 1 0.271492 0.386865 0.317182
20118 1 0.300014 0.724867 0.317171
20123 1 0.271492 0.886865 0.317182
20124 1 0.300014 0.224866 0.317171
20688 1 0.385517 0.231942 0.365829
20687 1 0.356976 0.891054 0.365828
20686 1 0.371303 0.567861 0.341504
20685 1 0.328454 0.551584 0.365838
20684 1 0.342762 0.227613 0.341498
20682 1 0.385517 0.731943 0.365829
20681 1 0.356976 0.391054 0.365828
20680 1 0.371303 0.0678618 0.341504
20679 1 0.328454 0.0515847 0.365838
20678 1 0.342762 0.727613 0.341498
20136 1 0.385637 0.244099 0.317195
20135 1 0.357083 0.903311 0.317174
20133 1 0.328543 0.563625 0.317167
20127 1 0.328543 0.0636242 0.317167
20129 1 0.357083 0.403312 0.317174
20130 1 0.385637 0.744098 0.317195
20699 1 0.442677 0.919691 0.365896
20697 1 0.414082 0.57466 0.365851
20696 1 0.428441 0.252847 0.341568
20695 1 0.399862 0.909519 0.341527
20693 1 0.442677 0.419691 0.365896
20691 1 0.414082 0.0746596 0.365851
20690 1 0.428441 0.752848 0.341568
20689 1 0.399862 0.409518 0.341527
20147 1 0.442784 0.929534 0.31728
20145 1 0.414204 0.58615 0.317232
20141 1 0.442784 0.429534 0.31728
20139 1 0.414204 0.0861502 0.317232
20700 1 0.471299 0.267302 0.365955
20698 1 0.457038 0.597983 0.341621
20694 1 0.471299 0.767302 0.365955
20692 1 0.457038 0.0979831 0.341621
20148 1 0.471372 0.274147 0.317327
20142 1 0.471372 0.774147 0.317327
20707 1 0.485646 0.944725 0.341668
20701 1 0.485646 0.444726 0.341668
20151 1 0.499964 0.119649 0.317356
20703 1 0.499936 0.117039 0.365997
20157 1 0.499964 0.619649 0.317356
20709 1 0.499936 0.617039 0.365997
21751 1 0.0578622 0.844373 0.439119
21745 1 0.0578622 0.344373 0.439119
21742 3 0.0289429 0.511066 0.439072
21740 3 0.000393975 0.177109 0.439072
21736 3 0.0289429 0.0110666 0.439072
21734 3 0.000393975 0.677108 0.439072
21199 1 0.057822 0.853309 0.39041
21193 1 0.057822 0.353309 0.39041
21192 1 0.0435051 0.1817 0.414788
21191 3 0.0146684 0.848029 0.414701
21190 3 0.0289429 0.519115 0.390329
21188 3 0.000393975 0.184728 0.390329
21186 1 0.0435051 0.6817 0.414788
21185 3 0.0146684 0.348028 0.414701
21184 3 0.0289429 0.0191156 0.390329
21182 3 0.000393975 0.684728 0.390329
21754 1 0.114773 0.512903 0.439078
21752 1 0.0862979 0.178512 0.4391
21748 1 0.114773 0.0129027 0.439078
21746 1 0.0862979 0.678512 0.4391
21204 1 0.128986 0.185295 0.414697
21203 1 0.100509 0.850576 0.414718
21202 1 0.114716 0.52278 0.39034
21201 1 0.0720238 0.516072 0.414746
21200 1 0.0862285 0.187896 0.390358
21198 1 0.128986 0.685295 0.414697
21197 1 0.100509 0.350576 0.414718
21196 1 0.114716 0.0227802 0.39034
21195 1 0.0720238 0.0160717 0.414746
21194 1 0.0862285 0.687896 0.390358
21764 1 0.171743 0.182139 0.439043
21763 1 0.143256 0.847459 0.43906
21758 1 0.171743 0.682139 0.439043
21757 1 0.143256 0.347459 0.43906
21215 1 0.185964 0.855363 0.414663
21213 1 0.157475 0.520227 0.41468
21212 1 0.1717 0.193191 0.390305
21211 1 0.143205 0.857877 0.390321
21209 1 0.185964 0.355363 0.414663
21207 1 0.157475 0.0202267 0.41468
21206 1 0.1717 0.693192 0.390305
21205 1 0.143205 0.357877 0.390321
21776 1 0.257203 0.187467 0.438982
21775 1 0.228718 0.852093 0.439004
21770 1 0.257203 0.687468 0.438982
21769 1 0.228718 0.352093 0.439004
21766 1 0.200231 0.517007 0.439024
21760 1 0.200231 0.0170074 0.439024
21225 1 0.242941 0.526459 0.414622
21224 1 0.25718 0.201024 0.390244
21223 1 0.228687 0.864708 0.390267
21219 1 0.242941 0.0264593 0.414622
21218 1 0.25718 0.701023 0.390244
21217 1 0.228687 0.364708 0.390267
21216 1 0.214453 0.190758 0.414643
21214 1 0.200194 0.528785 0.390287
21210 1 0.214453 0.690758 0.414643
21208 1 0.200194 0.0287848 0.390287
21787 1 0.314166 0.859607 0.438927
21781 1 0.314166 0.359608 0.438927
21778 1 0.285686 0.523251 0.438956
21772 1 0.285686 0.0232506 0.438956
21235 1 0.314169 0.875408 0.390197
21229 1 0.314169 0.375407 0.390197
21228 1 0.299913 0.19924 0.414572
21227 1 0.271427 0.862568 0.414598
21226 1 0.285673 0.537853 0.390221
21222 1 0.299913 0.699241 0.414572
21221 1 0.271427 0.362568 0.414598
21220 1 0.285673 0.0378535 0.390221
21790 1 0.37112 0.535129 0.438857
21788 1 0.342644 0.196789 0.438895
21784 1 0.37112 0.0351296 0.438858
21782 1 0.342644 0.696788 0.438895
21240 1 0.385394 0.215314 0.414484
21239 1 0.356892 0.875263 0.414512
21238 1 0.371187 0.553747 0.390155
21237 1 0.3284 0.536712 0.414542
21236 1 0.342671 0.213929 0.390173
21234 1 0.385394 0.715313 0.414484
21233 1 0.356892 0.375265 0.414512
21232 1 0.371187 0.0537462 0.390155
21231 1 0.3284 0.0367113 0.414542
21230 1 0.342671 0.71393 0.390173
21800 1 0.428103 0.217912 0.438776
21799 1 0.399602 0.875168 0.438818
21794 1 0.428103 0.717913 0.438777
21793 1 0.399602 0.375167 0.438818
21251 1 0.442489 0.903211 0.414463
21249 1 0.413919 0.557541 0.414465
21248 1 0.428293 0.239333 0.390166
21247 1 0.399723 0.89531 0.390149
21245 1 0.442489 0.40321 0.414463
21243 1 0.413919 0.0575422 0.414465
21242 1 0.428293 0.739332 0.390166
21241 1 0.399723 0.395311 0.390149
21802 1 0.456656 0.565736 0.438732
21796 1 0.456656 0.0657346 0.438732
21252 1 0.471141 0.254404 0.414507
21250 1 0.45691 0.586776 0.390212
21246 1 0.471141 0.754405 0.414507
21244 1 0.45691 0.0867766 0.390212
21811 1 0.485375 0.923459 0.438773
21805 1 0.485375 0.42346 0.438773
21259 1 0.485573 0.938154 0.390276
21255 1 0.499878 0.111959 0.414578
21253 1 0.485573 0.438153 0.390276
21261 1 0.499878 0.611959 0.414578
21744 1 0.0434859 0.17297 0.463454
21743 3 0.0146684 0.840074 0.463443
21738 1 0.0434859 0.67297 0.463454
21737 3 0.0146684 0.340074 0.463443
22286 3 0.000393975 0.669291 0.487814
22288 3 0.0289429 0.00278389 0.487814
22292 3 0.000393975 0.169292 0.487814
22294 3 0.0289429 0.502783 0.487814
22297 1 0.0578609 0.335375 0.487822
22303 1 0.0578609 0.835375 0.487822
21756 1 0.129034 0.174961 0.463441
21755 1 0.100547 0.84085 0.463457
21753 1 0.0720435 0.506876 0.463468
21750 1 0.129034 0.67496 0.463441
21749 1 0.100547 0.34085 0.463457
21747 1 0.0720435 0.00687625 0.463468
22298 1 0.0863161 0.668987 0.487824
22300 1 0.114808 0.00276577 0.487817
22304 1 0.0863161 0.168987 0.487824
22306 1 0.114808 0.502766 0.487817
21767 1 0.186015 0.843553 0.463406
21765 1 0.157525 0.509204 0.463424
21761 1 0.186015 0.343553 0.463406
21759 1 0.157525 0.00920385 0.463424
22309 1 0.143302 0.336604 0.487804
22310 1 0.171798 0.670481 0.487788
22315 1 0.143302 0.836604 0.487804
22316 1 0.171798 0.170481 0.487788
21777 1 0.242994 0.512697 0.463368
21771 1 0.242994 0.012697 0.463368
21768 1 0.214505 0.17804 0.463388
21762 1 0.214505 0.67804 0.463388
22312 1 0.200295 0.00440012 0.487771
22318 1 0.200295 0.5044 0.487771
22321 1 0.22879 0.338385 0.487752
22322 1 0.257284 0.672457 0.487733
22327 1 0.22879 0.838384 0.487752
22328 1 0.257284 0.172457 0.487733
21780 1 0.299963 0.182845 0.46332
21779 1 0.27148 0.847602 0.463345
21774 1 0.299963 0.682845 0.46332
21773 1 0.27148 0.347603 0.463345
22324 1 0.285776 0.00665542 0.487712
22330 1 0.285776 0.506655 0.487712
22333 1 0.314263 0.341046 0.48769
22339 1 0.314263 0.841047 0.48769
21792 1 0.385369 0.192788 0.463218
21791 1 0.356909 0.855128 0.463258
21789 1 0.32844 0.518604 0.463291
21786 1 0.385369 0.69279 0.463218
21785 1 0.356909 0.355127 0.463258
21783 1 0.32844 0.0186043 0.463291
22334 1 0.342742 0.675773 0.487666
22336 1 0.371209 0.0109956 0.48764
22340 1 0.342742 0.175772 0.487666
22342 1 0.371209 0.510997 0.48764
21803 1 0.442266 0.875073 0.463096
21801 1 0.413819 0.532316 0.463168
21797 1 0.442266 0.375075 0.463096
21795 1 0.413819 0.0323147 0.463168
22345 1 0.399654 0.347014 0.487608
22346 1 0.428059 0.684407 0.487564
22351 1 0.399654 0.847013 0.487608
22352 1 0.428059 0.184409 0.487564
22348 1 0.456422 0.0244544 0.487499
22363 1 0.484875 0.875039 0.487345
22357 1 0.484875 0.375038 0.487345
21798 1 0.470783 0.725635 0.462977
21804 1 0.470783 0.225636 0.462978
21807 1 0.499678 0.0962866 0.463055
22354 1 0.456422 0.524453 0.487499
21813 1 0.499678 0.596286 0.463055
22289 3 0.0146684 0.331982 0.512186
22290 1 0.0434946 0.664312 0.512181
22295 3 0.0146684 0.831983 0.512186
22296 1 0.0434946 0.164312 0.512181
22838 3 0.000393975 0.661424 0.536557
22840 3 0.0289429 0.994441 0.536557
22841 3 0.0146684 0.323918 0.560928
22842 1 0.0435249 0.655937 0.560862
22844 3 0.000393975 0.161424 0.536557
22846 3 0.0289429 0.49444 0.536557
22847 3 0.0146684 0.823919 0.560928
22848 1 0.0435249 0.155937 0.560862
22849 1 0.0578826 0.326559 0.536533
22855 1 0.0578826 0.826559 0.536533
22299 1 0.0720588 0.997644 0.512183
22301 1 0.100572 0.330978 0.512187
22302 1 0.12907 0.664387 0.51218
22305 1 0.0720588 0.497644 0.512183
22307 1 0.100572 0.830978 0.512187
22308 1 0.12907 0.164387 0.51218
22850 1 0.0863336 0.65949 0.536554
22851 1 0.0720581 0.988614 0.560926
22852 1 0.114832 0.992573 0.536553
22853 1 0.100579 0.321279 0.560923
22854 1 0.129093 0.653955 0.560913
22856 1 0.0863336 0.15949 0.536554
22857 1 0.0720581 0.488614 0.560926
22858 1 0.114832 0.492573 0.536553
22859 1 0.100579 0.821279 0.560923
22860 1 0.129093 0.153955 0.560913
22311 1 0.157575 0.997838 0.512167
22313 1 0.186078 0.331253 0.512151
22317 1 0.157575 0.497838 0.512167
22319 1 0.186078 0.831253 0.512151
22861 1 0.143341 0.325657 0.536542
22862 1 0.171853 0.658637 0.536528
22863 1 0.157615 0.986563 0.560901
22865 1 0.186136 0.318989 0.560887
22867 1 0.143341 0.825656 0.536542
22868 1 0.171853 0.158637 0.536528
22869 1 0.157615 0.486563 0.560901
22871 1 0.186136 0.818989 0.560887
22314 1 0.214583 0.664629 0.512134
22320 1 0.214583 0.16463 0.512134
22323 1 0.243087 0.997964 0.512117
22329 1 0.243087 0.497964 0.512117
22864 1 0.200366 0.991496 0.536512
22866 1 0.214658 0.651209 0.560872
22870 1 0.200366 0.491495 0.536512
22872 1 0.214658 0.151209 0.560872
22873 1 0.228879 0.32421 0.536496
22874 1 0.257393 0.656733 0.536481
22875 1 0.24318 0.983158 0.560858
22879 1 0.228879 0.82421 0.536496
22880 1 0.257393 0.156733 0.536481
22881 1 0.24318 0.483158 0.560858
22325 1 0.27159 0.331243 0.512099
22326 1 0.300091 0.664451 0.512082
22331 1 0.27159 0.831244 0.512099
22332 1 0.300091 0.164451 0.512082
22876 1 0.285907 0.989003 0.536467
22877 1 0.271704 0.314737 0.560845
22878 1 0.300228 0.645816 0.560838
22882 1 0.285907 0.489003 0.536467
22883 1 0.271704 0.814737 0.560845
22884 1 0.300228 0.145816 0.560838
22885 1 0.31442 0.320925 0.536457
22891 1 0.31442 0.820925 0.536457
22335 1 0.328588 0.997589 0.512066
22337 1 0.357079 0.330632 0.512054
22338 1 0.385559 0.66344 0.512046
22341 1 0.328588 0.49759 0.512067
22343 1 0.357079 0.830631 0.512054
22344 1 0.385559 0.163441 0.512046
22886 1 0.342932 0.652343 0.536453
22887 1 0.328752 0.976193 0.560838
22888 1 0.371441 0.982915 0.536458
22889 1 0.357275 0.305501 0.56085
22890 1 0.385796 0.633083 0.560883
22892 1 0.342932 0.152344 0.536453
22893 1 0.328752 0.476192 0.560838
22894 1 0.371441 0.482915 0.536458
22895 1 0.357275 0.805501 0.56085
22896 1 0.385796 0.133083 0.560883
22347 1 0.414019 0.995724 0.512044
22349 1 0.442455 0.32661 0.512061
22353 1 0.414019 0.495722 0.512044
22355 1 0.442455 0.826612 0.512061
22897 1 0.399946 0.311964 0.536482
22898 1 0.428449 0.638088 0.536541
22899 1 0.414312 0.957817 0.560952
22901 1 0.442827 0.277698 0.561088
22903 1 0.399946 0.811965 0.536482
22904 1 0.428449 0.138087 0.536541
22905 1 0.414312 0.457819 0.560952
22907 1 0.442827 0.777696 0.561088
22350 1 0.470938 0.653747 0.512129
22356 1 0.470938 0.153745 0.512129
22900 1 0.456974 0.957965 0.536671
22902 1 0.471337 0.589334 0.56137
22906 1 0.456974 0.457967 0.536671
22908 1 0.471337 0.0893366 0.56137
22359 1 0.499613 0.95815 0.512403
22909 1 0.485517 0.262348 0.53702
22915 1 0.485517 0.762347 0.53702
22917 1 0.499899 0.391678 0.561724
22365 1 0.499613 0.458151 0.512403
22911 1 0.499899 0.891681 0.561724
23390 3 0.000393975 0.653657 0.585299
23392 3 0.0289429 0.986218 0.585299
23393 3 0.0146684 0.316044 0.609671
23394 1 0.0432892 0.648849 0.609727
23396 3 0.000393975 0.153658 0.585299
23398 3 0.0289429 0.486217 0.585299
23399 3 0.0146684 0.816044 0.609671
23400 1 0.0432892 0.148849 0.609727
23401 1 0.0578312 0.318195 0.585298
23407 1 0.0578312 0.818195 0.585298
23402 1 0.0863061 0.650421 0.585293
23403 1 0.0720574 0.980062 0.609651
23404 1 0.114839 0.982751 0.585279
23405 1 0.100587 0.312004 0.609639
23406 1 0.129112 0.643945 0.609636
23408 1 0.0863061 0.150421 0.585293
23409 1 0.0720574 0.480062 0.609651
23410 1 0.114839 0.482751 0.585279
23411 1 0.100587 0.812004 0.609639
23412 1 0.129112 0.143945 0.609636
23413 1 0.143366 0.315016 0.58527
23414 1 0.171894 0.647102 0.585258
23415 1 0.157641 0.97577 0.609628
23417 1 0.186171 0.307341 0.609616
23419 1 0.143366 0.815016 0.58527
23420 1 0.171894 0.147102 0.585258
23421 1 0.157641 0.47577 0.609628
23423 1 0.186171 0.807341 0.609616
23416 1 0.200421 0.978938 0.585245
23418 1 0.214704 0.63858 0.609602
23422 1 0.200421 0.478938 0.585245
23424 1 0.214704 0.13858 0.609602
23425 1 0.22895 0.31047 0.585231
23426 1 0.25748 0.641576 0.58522
23427 1 0.243238 0.969385 0.609591
23431 1 0.22895 0.81047 0.585231
23432 1 0.25748 0.141576 0.58522
23433 1 0.243238 0.469385 0.609591
23428 1 0.286011 0.972115 0.585213
23429 1 0.271773 0.299613 0.609584
23430 1 0.300307 0.629082 0.609587
23434 1 0.286011 0.472115 0.585213
23435 1 0.271773 0.799613 0.609584
23436 1 0.300307 0.129082 0.609587
23437 1 0.314542 0.301889 0.585215
23443 1 0.314542 0.80189 0.585215
23438 1 0.343071 0.630593 0.58523
23439 1 0.328839 0.957559 0.609602
23440 1 0.371597 0.9577 0.585265
23441 1 0.357366 0.284677 0.609636
23442 1 0.385886 0.609912 0.609698
23444 1 0.343071 0.130593 0.58523
23445 1 0.328839 0.457559 0.609602
23446 1 0.371597 0.4577 0.585265
23447 1 0.357366 0.784677 0.609636
23448 1 0.385886 0.109912 0.609698
23449 1 0.400116 0.282437 0.585333
23450 1 0.428629 0.603692 0.585451
23451 1 0.414398 0.93264 0.609799
23453 1 0.442904 0.252257 0.60995
23455 1 0.400116 0.782437 0.585333
23456 1 0.428629 0.103693 0.585451
23457 1 0.414398 0.432639 0.609799
23459 1 0.442904 0.752259 0.60995
23452 1 0.457135 0.92009 0.585654
23454 1 0.471422 0.568847 0.610133
23458 1 0.457134 0.42009 0.585654
23460 1 0.471422 0.0688446 0.610133
23461 1 0.485662 0.231577 0.585906
23467 1 0.485662 0.731577 0.585906
23463 1 0.499976 0.883705 0.610258
23469 1 0.499976 0.383707 0.610258
23944 3 0.0289429 0.978281 0.634042
23945 3 0.0146684 0.308498 0.658413
23946 3 0.0432173 0.640387 0.658413
23950 3 0.0289429 0.47828 0.634042
23951 3 0.0146684 0.808498 0.658413
23952 3 0.0432173 0.140387 0.658413
23953 1 0.0578437 0.309353 0.633991
23959 1 0.0578437 0.809353 0.633991
24496 3 0.0289429 0.970762 0.682784
24502 3 0.0289429 0.470761 0.682784
24505 3 0.0574918 0.302388 0.682784
24511 3 0.0574918 0.802389 0.682784
23954 1 0.0863551 0.641501 0.634001
23955 1 0.0721364 0.971698 0.658352
23956 1 0.114862 0.973325 0.634003
23957 1 0.100574 0.303212 0.658379
23958 1 0.129096 0.634677 0.658371
23960 1 0.0863551 0.141501 0.634001
23961 1 0.0721364 0.471698 0.658352
23962 1 0.114862 0.473325 0.634003
23963 1 0.100574 0.803212 0.658379
23964 1 0.129096 0.134677 0.658371
24506 1 0.0862558 0.633823 0.682722
24508 1 0.114776 0.964981 0.682742
24512 1 0.0862558 0.133823 0.682722
24514 1 0.114776 0.464981 0.682742
23965 1 0.143376 0.30495 0.633999
23966 1 0.171906 0.636343 0.633986
23967 1 0.157625 0.965915 0.658358
23969 1 0.186165 0.29683 0.658341
23971 1 0.143376 0.80495 0.633999
23972 1 0.171906 0.136343 0.633986
23973 1 0.157625 0.465915 0.658358
23975 1 0.186165 0.796831 0.658341
24517 1 0.143328 0.296015 0.682726
24518 1 0.171874 0.626818 0.682709
24523 1 0.143328 0.796015 0.682726
24524 1 0.171874 0.126818 0.682709
23968 1 0.200441 0.967394 0.633972
23970 1 0.214707 0.627346 0.658326
23974 1 0.200441 0.467394 0.633972
23976 1 0.214707 0.127346 0.658326
23977 1 0.228979 0.298015 0.63396
23978 1 0.257518 0.628085 0.633953
23979 1 0.243249 0.957351 0.658318
23983 1 0.228979 0.798015 0.63396
23984 1 0.257518 0.128085 0.633953
23985 1 0.243249 0.457351 0.658318
24520 1 0.200424 0.957273 0.682691
24526 1 0.200424 0.457273 0.682691
24529 1 0.22897 0.28727 0.682681
24530 1 0.257513 0.616694 0.68268
24535 1 0.22897 0.78727 0.682681
24536 1 0.257513 0.116694 0.68268
23980 1 0.286054 0.957449 0.633954
23981 1 0.271788 0.286718 0.658319
23982 1 0.300323 0.615291 0.658331
23986 1 0.286054 0.457449 0.633954
23987 1 0.271788 0.786718 0.658319
23988 1 0.300323 0.115292 0.658331
23989 1 0.314587 0.285911 0.633968
23995 1 0.314587 0.785911 0.633968
24532 1 0.28605 0.945434 0.68269
24538 1 0.28605 0.445433 0.68269
24541 1 0.314581 0.273353 0.682715
24547 1 0.314581 0.773353 0.682715
23990 1 0.343115 0.61324 0.634
23991 1 0.328852 0.942902 0.658359
23992 1 0.371636 0.939092 0.634055
23993 1 0.357374 0.269347 0.658407
23994 1 0.385889 0.594396 0.65848
23996 1 0.343115 0.11324 0.634
23997 1 0.328852 0.442902 0.658359
23998 1 0.371636 0.439092 0.634055
23999 1 0.357374 0.769348 0.658407
24000 1 0.385889 0.0943956 0.65848
24542 1 0.343105 0.600321 0.682756
24544 1 0.371623 0.92621 0.682818
24548 1 0.343105 0.100321 0.682756
24550 1 0.371623 0.426211 0.682818
24001 1 0.400149 0.263097 0.634141