ITEM: TIMESTEP
46
ITEM: NUMBER OF ATOMS
2358
ITEM: BOX BOUNDS ss pp ss
-4.0826385614000003e+01 4.0826373535000002e+01
-4.1208122699999999e-01 4.5329187729999996e+00
-4.0912806488000001e+01 4.1922179064000005e+01
ITEM: ATOMS id type xs ys zs
17354 3 0.257334 0.752401 0.0491324
17360 3 0.257334 0.252401 0.0491324
17356 3 0.285883 0.0897423 0.0491324
17362 3 0.285883 0.589742 0.0491324
17365 3 0.314432 0.427284 0.0491324
17371 3 0.314432 0.927284 0.0491324
16815 3 0.328707 0.0975087 0.0247612
16817 3 0.357255 0.435146 0.0247612
16818 3 0.385804 0.772928 0.0247612
16821 3 0.328707 0.597508 0.0247612
16823 3 0.357255 0.935146 0.0247612
16824 3 0.385804 0.272928 0.0247612
17366 3 0.342981 0.765018 0.0491324
17368 1 0.371619 0.102374 0.0491617
17372 3 0.342981 0.265018 0.0491324
17374 1 0.371619 0.602374 0.0491617
16825 3 0.400079 0.442657 0.00038994
16826 3 0.428628 0.780399 0.00038994
16827 3 0.414353 0.110832 0.0247612
16829 3 0.442902 0.448832 0.0247612
16831 3 0.400079 0.942658 0.00038994
16832 3 0.428628 0.280399 0.00038994
16833 3 0.414353 0.610832 0.0247612
16835 3 0.442902 0.948832 0.0247612
17377 1 0.400213 0.44189 0.0494562
17378 1 0.428759 0.779579 0.0494788
17383 1 0.400213 0.94189 0.0494562
17384 1 0.428759 0.279579 0.0494788
16828 3 0.457177 0.118211 0.00038994
16830 3 0.471451 0.786899 0.0247612
16834 3 0.457177 0.61821 0.00038994
16836 3 0.471451 0.2869 0.0247612
17380 1 0.457226 0.117487 0.0493482
17386 1 0.457226 0.617487 0.0493482
16837 3 0.485726 0.456065 0.00038994
16839 3 0.5 0.125001 0.0247612
16843 3 0.485726 0.956066 0.00038994
16845 3 0.5 0.625 0.0247612
17389 1 0.48574 0.455812 0.0493308
17395 1 0.48574 0.955812 0.0493308
17895 3 0.157413 0.0663078 0.122246
17897 3 0.185962 0.403068 0.122246
17901 3 0.157413 0.566307 0.122246
17903 3 0.185962 0.903069 0.122246
17346 3 0.214511 0.744725 0.0735036
17352 3 0.214511 0.244726 0.0735036
17355 3 0.24306 0.081852 0.0735036
17361 3 0.24306 0.581852 0.0735036
17896 3 0.200236 0.0739907 0.0978748
17898 3 0.214511 0.740094 0.122246
17902 3 0.200236 0.57399 0.0978748
17904 3 0.214511 0.240095 0.122246
17905 3 0.228785 0.411081 0.0978748
17906 1 0.2575 0.748792 0.0981446
17907 1 0.243214 0.077646 0.122527
17911 3 0.228785 0.911082 0.0978748
17912 1 0.2575 0.248792 0.0981446
17913 1 0.243214 0.577646 0.122527
17357 3 0.271609 0.419209 0.0735036
17358 1 0.300258 0.756145 0.0735211
17363 3 0.271609 0.919209 0.0735036
17364 1 0.300258 0.256145 0.0735211
17908 1 0.286087 0.0861586 0.0981397
17909 1 0.271747 0.415236 0.122456
17910 1 0.300292 0.75309 0.122432
17914 1 0.286087 0.586159 0.0981397
17915 1 0.271747 0.915236 0.122456
17916 1 0.300292 0.25309 0.122432
17917 1 0.31459 0.424024 0.0980981
17923 1 0.31459 0.924024 0.0980981
17367 1 0.32887 0.095382 0.0738081
17369 1 0.357456 0.432988 0.0737896
17370 1 0.385946 0.77115 0.0737594
17373 1 0.32887 0.595382 0.0738081
17375 1 0.357456 0.932988 0.0737896
17376 1 0.385946 0.27115 0.0737594
17918 1 0.343142 0.762513 0.098116
17919 1 0.328827 0.0912559 0.122443
17920 1 0.371666 0.100782 0.098103
17921 1 0.357371 0.429803 0.12246
17922 1 0.385902 0.768501 0.122469
17924 1 0.343142 0.262513 0.098116
17925 1 0.328827 0.591256 0.122443
17926 1 0.371666 0.600782 0.098103
17927 1 0.357371 0.929803 0.12246
17928 1 0.385902 0.268501 0.122469
17379 1 0.414477 0.109785 0.0737929
17381 1 0.442997 0.448148 0.0737444
17385 1 0.414477 0.609785 0.0737929
17387 1 0.442997 0.948148 0.0737444
17929 1 0.400188 0.439282 0.0981249
17930 1 0.428724 0.778072 0.0981316
17931 1 0.414435 0.107457 0.12248
17933 1 0.442967 0.446608 0.122479
17935 1 0.400188 0.939282 0.0981249
17936 1 0.428724 0.278072 0.0981316
17937 1 0.414435 0.607457 0.12248
17939 1 0.442967 0.946608 0.122479
17382 1 0.471495 0.786455 0.0736898
17388 1 0.471494 0.286455 0.0736898
17932 1 0.457242 0.116832 0.098102
17934 1 0.471487 0.785792 0.122468
17938 1 0.457242 0.616832 0.098102
17940 1 0.471487 0.285792 0.122468
17943 1 0.5 0.125 0.122462
17941 1 0.485747 0.455587 0.0980779
17947 1 0.485747 0.955587 0.0980779
17391 1 0.5 0.125 0.0736771
17949 1 0.5 0.625 0.122462
18438 3 0.128864 0.724214 0.170988
18444 3 0.128864 0.224215 0.170988
18445 3 0.143139 0.395323 0.146617
18446 3 0.171687 0.731972 0.146617
18447 3 0.157413 0.0607206 0.170988
18449 1 0.186157 0.397774 0.171252
18451 3 0.143139 0.895324 0.146617
18452 3 0.171687 0.231973 0.146617
18453 3 0.157413 0.56072 0.170988
18455 1 0.186157 0.897774 0.171252
18448 1 0.200442 0.0697842 0.146842
18450 1 0.214637 0.734911 0.171177
18454 1 0.200442 0.569784 0.146842
18456 1 0.214637 0.234911 0.171177
18457 1 0.228908 0.406321 0.146805
18458 1 0.257435 0.74383 0.146795
18459 1 0.243149 0.0720632 0.171135
18463 1 0.228908 0.906321 0.146805
18464 1 0.257435 0.24383 0.146795
18465 1 0.243149 0.572063 0.171135
18460 1 0.285985 0.0816162 0.146783
18461 1 0.271683 0.409755 0.171119
18462 1 0.300221 0.747826 0.171113
18466 1 0.285985 0.581616 0.146783
18467 1 0.271683 0.909755 0.171119
18468 1 0.300221 0.247826 0.171113
18469 1 0.314524 0.419766 0.146778
18475 1 0.314524 0.919766 0.146778
18470 1 0.343066 0.758284 0.14679
18471 1 0.328764 0.0863132 0.171122
18472 1 0.371608 0.0971587 0.146809
18473 1 0.357308 0.425257 0.171142
18474 1 0.385852 0.764634 0.171165
18476 1 0.343066 0.258284 0.14679
18477 1 0.328764 0.586313 0.171122
18478 1 0.371608 0.597159 0.146809
18479 1 0.357308 0.925257 0.171142
18480 1 0.385852 0.264634 0.171165
18481 1 0.400146 0.436332 0.146826
18482 1 0.428684 0.775792 0.14684
18483 1 0.414394 0.104385 0.171186
18485 1 0.442934 0.444435 0.171202
18487 1 0.400146 0.936332 0.146826
18488 1 0.428684 0.275792 0.14684
18489 1 0.414394 0.604385 0.171186
18491 1 0.442934 0.944435 0.171202
18484 1 0.457215 0.115432 0.146844
18486 1 0.471469 0.784678 0.171211
18490 1 0.457215 0.615432 0.146844
18492 1 0.471469 0.284678 0.171211
18493 1 0.485739 0.455139 0.146843
18499 1 0.485739 0.955139 0.146843
18501 1 0.5 0.625 0.171214
19537 3 0.0574918 0.374721 0.244102
19543 3 0.0574918 0.874722 0.244102
18986 3 0.0860407 0.716932 0.19536
18987 3 0.0717663 0.0458401 0.219731
18988 3 0.11459 0.0530028 0.19536
18989 3 0.100315 0.381715 0.219731
18990 1 0.129056 0.718474 0.219981
18992 3 0.0860407 0.216932 0.19536
18993 3 0.0717663 0.54584 0.219731
18994 3 0.11459 0.553002 0.19536
18995 3 0.100315 0.881715 0.219731
18996 1 0.129056 0.218474 0.219981
19538 3 0.0860407 0.710382 0.244102
19540 1 0.114816 0.046434 0.244351
19544 3 0.0860407 0.210382 0.244102
19546 1 0.114816 0.546434 0.244351
18997 1 0.143101 0.388895 0.195473
18998 1 0.171735 0.725933 0.195504
18999 1 0.157531 0.0543517 0.219905
19001 1 0.186012 0.390817 0.219826
19003 1 0.143101 0.888895 0.195473
19004 1 0.171735 0.225933 0.195504
19005 1 0.157531 0.554352 0.219905
19007 1 0.186012 0.890817 0.219826
19549 1 0.143296 0.38265 0.244276
19550 1 0.171788 0.7188 0.244206
19555 1 0.143296 0.88265 0.244276
19556 1 0.171788 0.2188 0.244206
19000 1 0.200294 0.0630654 0.19551
19002 1 0.214552 0.727875 0.219819
19006 1 0.200294 0.563065 0.19551
19008 1 0.214552 0.227875 0.219819
19009 1 0.22885 0.400168 0.195489
19010 1 0.257383 0.7376 0.19546
19011 1 0.243087 0.0651555 0.219801
19015 1 0.22885 0.900168 0.195489
19016 1 0.257383 0.2376 0.19546
19017 1 0.243087 0.565156 0.219801
19552 1 0.200285 0.0553511 0.244161
19558 1 0.200285 0.555351 0.244161
19561 1 0.228803 0.392403 0.244142
19562 1 0.25733 0.729878 0.244127
19567 1 0.228803 0.892403 0.244142
19568 1 0.25733 0.229878 0.244127
19012 1 0.285922 0.0754969 0.19545
19013 1 0.271623 0.402844 0.219788
19014 1 0.30016 0.741066 0.219785
19018 1 0.285922 0.575497 0.19545
19019 1 0.271623 0.902844 0.219788
19020 1 0.30016 0.241066 0.219785
19021 1 0.314462 0.413901 0.195454
19027 1 0.314462 0.913901 0.195454
19564 1 0.285859 0.0678602 0.244119
19570 1 0.285859 0.56786 0.244119
19573 1 0.314394 0.406471 0.244122
19579 1 0.314394 0.906471 0.244122
19022 1 0.343006 0.752834 0.195469
19023 1 0.328701 0.0798909 0.219795
19024 1 0.371552 0.0923125 0.195494
19025 1 0.357246 0.41936 0.219816
19026 1 0.385796 0.759477 0.219845
19028 1 0.343006 0.252834 0.195469
19029 1 0.328701 0.579891 0.219795
19030 1 0.371552 0.592312 0.195494
19031 1 0.357246 0.91936 0.219816
19032 1 0.385796 0.259477 0.219845
19574 1 0.342936 0.745799 0.244136
19576 1 0.371486 0.0859072 0.244162
19580 1 0.342936 0.245799 0.244136
19582 1 0.371486 0.585907 0.244162
19033 1 0.400099 0.432297 0.195521
19034 1 0.428646 0.772731 0.195546
19035 1 0.414349 0.100218 0.219877
19037 1 0.4429 0.441494 0.219907
19039 1 0.400099 0.932297 0.195521
19040 1 0.428646 0.272731 0.195546
19041 1 0.414349 0.600218 0.219877
19043 1 0.4429 0.941494 0.219907
19585 1 0.400041 0.426828 0.244197
19586 1 0.4286 0.768517 0.244234
19591 1 0.400041 0.926828 0.244197
19592 1 0.4286 0.268517 0.244234
19603 1 0.48572 0.953564 0.244285
19597 1 0.48572 0.453565 0.244285
19051 1 0.48573 0.954479 0.195576
19045 1 0.48573 0.454479 0.195576
19594 1 0.457161 0.610833 0.244267
19036 1 0.457189 0.113504 0.195566
19038 1 0.471451 0.783149 0.219928
19042 1 0.457189 0.613504 0.195566
19044 1 0.471451 0.283149 0.219928
19588 1 0.457161 0.110833 0.244267
19053 1 0.5 0.625 0.219936
19530 3 0.0432173 0.703605 0.268473
19536 3 0.0432173 0.203606 0.268473
20080 3 0.0289429 0.0325189 0.292845
20086 3 0.0289429 0.532518 0.292845
20089 3 0.0574918 0.367704 0.292845
20095 3 0.0574918 0.867705 0.292845
19539 3 0.0717663 0.0390345 0.268473
19541 1 0.100499 0.374532 0.268578
19542 1 0.129014 0.710558 0.268599
19545 3 0.0717663 0.539034 0.268473
19547 1 0.100499 0.874532 0.268578
19548 1 0.129014 0.210558 0.268599
20090 1 0.0863744 0.702632 0.292914
20092 1 0.114778 0.0381176 0.292908
20096 1 0.0863745 0.202632 0.292914
20098 1 0.114778 0.538118 0.292908
19551 1 0.157534 0.0465968 0.268577
19553 1 0.186031 0.382868 0.268528
19557 1 0.157534 0.546597 0.268577
19559 1 0.186031 0.882868 0.268528
20101 1 0.143276 0.374116 0.292919
20102 1 0.171771 0.71024 0.292893
20107 1 0.143276 0.874116 0.292919
20108 1 0.171771 0.21024 0.292893
19554 1 0.214533 0.719519 0.268495
19560 1 0.214533 0.219519 0.268495
19563 1 0.243045 0.0566741 0.268473
19569 1 0.243045 0.556674 0.268473
20120 1 0.257275 0.220623 0.292809
20119 1 0.228768 0.883348 0.292831
20104 1 0.200268 0.0465901 0.29286
20110 1 0.200268 0.54659 0.29286
20113 1 0.228768 0.383348 0.292831
20114 1 0.257275 0.720623 0.292809
20131 1 0.314312 0.897128 0.292787
19565 1 0.271563 0.394349 0.268459
19566 1 0.300089 0.732644 0.268453
19571 1 0.271563 0.894349 0.268459
19572 1 0.300089 0.232644 0.268453
20125 1 0.314312 0.397128 0.292787
20122 1 0.285789 0.558507 0.292793
20116 1 0.285789 0.0585071 0.292793
20134 1 0.371397 0.5773 0.292813
20132 1 0.342848 0.236664 0.292793
20128 1 0.371397 0.0773004 0.292813
20126 1 0.342848 0.736664 0.292793
19575 1 0.328623 0.0716889 0.268458
19577 1 0.357168 0.411609 0.268476
19578 1 0.385724 0.752513 0.268507
19581 1 0.328623 0.571689 0.268458
19583 1 0.357168 0.911609 0.268476
19584 1 0.385724 0.252513 0.268507
20144 1 0.428536 0.262426 0.292895
20143 1 0.399961 0.919197 0.292849
20138 1 0.428536 0.762427 0.292895
20137 1 0.399961 0.419197 0.292849
19587 1 0.414288 0.0944455 0.268547
19589 1 0.442857 0.43733 0.268589
19593 1 0.414288 0.594446 0.268547
19595 1 0.442857 0.93733 0.268589
20146 1 0.45712 0.606866 0.29294
20140 1 0.45712 0.106866 0.29294
19590 1 0.471428 0.780957 0.268621
19596 1 0.471428 0.280958 0.268621
20155 1 0.485706 0.952181 0.292968
20149 1 0.485706 0.452181 0.292968
19605 1 0.5 0.625 0.268633
20647 1 0.0575774 0.860285 0.3415
20641 1 0.0575774 0.360285 0.3415
20640 3 0.0432173 0.1887 0.365958
20639 3 0.0146684 0.85413 0.365958
20638 3 0.0289429 0.525224 0.341587
20634 3 0.0432173 0.688699 0.365958
20633 3 0.0146684 0.354129 0.365958
20632 3 0.0289429 0.0252249 0.341587
20082 3 0.0432173 0.696425 0.317216
20088 3 0.0432173 0.196426 0.317216
20652 1 0.128964 0.192515 0.365963
20651 1 0.100441 0.857589 0.365951
20650 1 0.114745 0.529501 0.341618
20649 1 0.0719243 0.522973 0.36593
20648 1 0.0862614 0.194413 0.341602
20646 1 0.128964 0.692515 0.365963
20645 1 0.100441 0.357589 0.365951
20644 1 0.114745 0.0295014 0.341618
20643 1 0.0719243 0.0229728 0.36593
20642 1 0.0862614 0.694413 0.341602
20091 1 0.0720857 0.0306141 0.317255
20093 1 0.100553 0.366051 0.317263
20094 1 0.129024 0.701651 0.317263
20097 1 0.0720857 0.530614 0.317255
20099 1 0.100553 0.866051 0.317263
20100 1 0.129024 0.201651 0.317263
20663 1 0.185974 0.863278 0.365936
20661 1 0.157473 0.527763 0.365955
20660 1 0.171737 0.200632 0.341593
20659 1 0.143239 0.864922 0.34161
20657 1 0.185974 0.363278 0.365936
20655 1 0.157473 0.0277625 0.365955
20654 1 0.171737 0.700632 0.341593
20653 1 0.143239 0.364922 0.34161
20103 1 0.157507 0.0375114 0.317252
20105 1 0.186003 0.373601 0.317227
20109 1 0.157507 0.537511 0.317252
20111 1 0.186003 0.873601 0.317227
20673 1 0.242959 0.535296 0.365883
20672 1 0.257221 0.209734 0.34151
20671 1 0.228727 0.872926 0.341538
20667 1 0.242959 0.0352956 0.365883
20666 1 0.257221 0.709734 0.34151
20665 1 0.228727 0.372926 0.341538
20664 1 0.214468 0.19909 0.365911
20662 1 0.200233 0.536603 0.341567
20658 1 0.214468 0.69909 0.365911
20656 1 0.200233 0.0366027 0.341567
20121 1 0.242996 0.546792 0.317169
20115 1 0.242996 0.0467916 0.317169
20106 1 0.214498 0.709978 0.317197
20112 1 0.214498 0.209978 0.317197
20683 1 0.314226 0.88542 0.341464
20677 1 0.314226 0.385421 0.341464
20676 1 0.299942 0.209469 0.365825
20675 1 0.271449 0.872031 0.365853
20674 1 0.28572 0.547165 0.341484
20670 1 0.299942 0.709468 0.365825
20669 1 0.271449 0.372031 0.365853
20668 1 0.28572 0.047165 0.341484
20124 1 0.300009 0.222243 0.317128
20123 1 0.271499 0.884167 0.317146
20118 1 0.300009 0.722243 0.317128
20117 1 0.271499 0.384167 0.317146
20688 1 0.385486 0.228889 0.365773
20687 1 0.356953 0.887495 0.36578
20686 1 0.371281 0.565465 0.341452
20685 1 0.328442 0.54785 0.365799
20684 1 0.342744 0.224745 0.341451
20682 1 0.385486 0.728888 0.365773
20681 1 0.356953 0.387495 0.36578
20680 1 0.371281 0.0654652 0.341452
20679 1 0.328442 0.0478497 0.365799
20678 1 0.342744 0.724745 0.341451
20136 1 0.385622 0.242807 0.317146
20135 1 0.357067 0.901309 0.317125
20133 1 0.328531 0.561211 0.31712
20130 1 0.385622 0.742807 0.317146
20129 1 0.357067 0.401308 0.317125
20127 1 0.328531 0.0612108 0.31712
20699 1 0.442664 0.920014 0.365834
20697 1 0.414052 0.572745 0.365789
20696 1 0.428432 0.252876 0.341516
20695 1 0.399841 0.908017 0.341472
20693 1 0.442664 0.420012 0.365834
20691 1 0.414052 0.0727447 0.365789
20690 1 0.428432 0.752876 0.341516
20689 1 0.399841 0.408018 0.341472
20147 1 0.442789 0.930935 0.317238
20145 1 0.414197 0.585975 0.317186
20141 1 0.442789 0.430934 0.317238
20139 1 0.414197 0.0859747 0.317186
20700 1 0.471322 0.271176 0.365897
20698 1 0.457049 0.600297 0.341573
20694 1 0.471322 0.771175 0.365897
20692 1 0.457049 0.100298 0.341573
20148 1 0.471392 0.277488 0.317284
20142 1 0.471392 0.777487 0.317284
20707 1 0.485681 0.949824 0.341615
20701 1 0.485681 0.449825 0.341615
20157 1 0.5 0.625001 0.317302
20709 1 0.5 0.625001 0.365925
21751 1 0.0578677 0.84225 0.439102
21745 1 0.0578677 0.34225 0.439102
21742 3 0.0289429 0.509354 0.439072
21740 3 0.000393975 0.175492 0.439072
21736 3 0.0289429 0.00935486 0.439072
21734 3 0.000393975 0.675491 0.439072
21199 1 0.0578274 0.851324 0.390373
21193 1 0.0578274 0.351324 0.390373
21192 1 0.0435108 0.179803 0.414776
21191 3 0.0146684 0.84639 0.414701
21190 3 0.0289429 0.517465 0.390329
21188 3 0.000393975 0.183164 0.390329
21186 1 0.0435108 0.679803 0.414776
21185 3 0.0146684 0.34639 0.414701
21184 3 0.0289429 0.0174657 0.390329
21182 3 0.000393975 0.683163 0.390329
21754 1 0.114781 0.50998 0.439052
21752 1 0.0863041 0.175991 0.439073
21748 1 0.114781 0.00997956 0.439052
21746 1 0.0863041 0.675991 0.439073
21204 1 0.128995 0.18234 0.414677
21203 1 0.10051 0.847923 0.414683
21202 1 0.114721 0.520106 0.390313
21201 1 0.0720283 0.513822 0.414713
21200 1 0.0862225 0.185491 0.390301
21198 1 0.128995 0.68234 0.414677
21197 1 0.10051 0.347923 0.414683
21196 1 0.114721 0.0201064 0.390313
21195 1 0.0720283 0.0138221 0.414713
21194 1 0.0862225 0.685491 0.390301
21764 1 0.171767 0.178471 0.439031
21763 1 0.143272 0.84417 0.439042
21758 1 0.171767 0.678471 0.439031
21757 1 0.143272 0.34417 0.439042
21215 1 0.18599 0.851777 0.414658
21213 1 0.157493 0.516977 0.414671
21212 1 0.171726 0.190049 0.390304
21211 1 0.143224 0.85498 0.390314
21209 1 0.18599 0.351777 0.414658
21207 1 0.157493 0.0169774 0.414671
21206 1 0.171726 0.690049 0.390304
21205 1 0.143224 0.35498 0.390314
21776 1 0.257243 0.182223 0.438975
21775 1 0.228755 0.847443 0.438998
21770 1 0.257243 0.682223 0.438975
21769 1 0.228755 0.347443 0.438998
21766 1 0.200262 0.512884 0.439016
21760 1 0.200262 0.0128842 0.439016
21225 1 0.24297 0.522041 0.414615
21224 1 0.2572 0.196948 0.390232
21223 1 0.228713 0.860945 0.39026
21219 1 0.24297 0.0220407 0.414615
21218 1 0.2572 0.696948 0.390232
21217 1 0.228713 0.360945 0.39026
21216 1 0.214482 0.186772 0.414638
21214 1 0.200222 0.525352 0.390285
21210 1 0.214482 0.686772 0.414638
21208 1 0.200222 0.0253518 0.390285
21787 1 0.314202 0.852963 0.43892
21781 1 0.314202 0.352963 0.43892
21778 1 0.285726 0.517343 0.438949
21772 1 0.285726 0.0173431 0.438949
21235 1 0.31417 0.87084 0.39017
21229 1 0.31417 0.370841 0.39017
21228 1 0.299934 0.19393 0.414557
21227 1 0.271454 0.857703 0.414587
21226 1 0.285685 0.533509 0.390202
21222 1 0.299934 0.69393 0.414557
21221 1 0.271454 0.357703 0.414587
21220 1 0.285685 0.0335092 0.390202
21790 1 0.371127 0.526835 0.438847
21788 1 0.34267 0.18932 0.438886
21784 1 0.371127 0.0268347 0.438846
21782 1 0.34267 0.689321 0.438886
21240 1 0.385363 0.209007 0.414445
21239 1 0.356884 0.86912 0.414485
21238 1 0.371158 0.5491 0.39011
21237 1 0.328409 0.530953 0.414523
21236 1 0.342659 0.209227 0.390138
21234 1 0.385363 0.709007 0.414445
21233 1 0.356884 0.369119 0.414485
21232 1 0.371158 0.0491016 0.39011
21231 1 0.328409 0.030953 0.414523
21230 1 0.342659 0.709227 0.390138
21800 1 0.42802 0.208822 0.438725
21799 1 0.399575 0.866216 0.438797
21794 1 0.42802 0.708822 0.438725
21793 1 0.399575 0.366219 0.438797
21251 1 0.44241 0.899261 0.41436
21249 1 0.413861 0.551608 0.414404
21248 1 0.428246 0.236682 0.390089
21247 1 0.39968 0.891175 0.39009
21245 1 0.44241 0.39926 0.41436
21243 1 0.413861 0.0516061 0.414404
21242 1 0.428246 0.736684 0.390089
21241 1 0.39968 0.391176 0.39009
21802 1 0.456534 0.559196 0.438607
21796 1 0.456534 0.0591989 0.438607
21252 1 0.471125 0.256751 0.4144
21250 1 0.456893 0.587681 0.390132
21246 1 0.471125 0.756748 0.4144
21244 1 0.456893 0.0876826 0.390132
21811 1 0.485425 0.929565 0.438684
21805 1 0.485425 0.429566 0.438684
21259 1 0.485625 0.944977 0.390201
21253 1 0.485625 0.444979 0.390201
21261 1 0.5 0.625001 0.414488
21744 1 0.043491 0.170987 0.463447
21743 3 0.0146684 0.838394 0.463443
21738 1 0.043491 0.670987 0.463447
21737 3 0.0146684 0.338394 0.463443
22286 3 0.000393975 0.667651 0.487814
22288 3 0.0289429 0.00104465 0.487814
22292 3 0.000393975 0.167652 0.487814
22294 3 0.0289429 0.501044 0.487814
22297 1 0.0578673 0.333167 0.48781
22303 1 0.0578673 0.833167 0.48781
21756 1 0.12905 0.171728 0.463418
21755 1 0.100558 0.83805 0.463432
21753 1 0.0720515 0.5045 0.463449
21750 1 0.12905 0.671728 0.463418
21749 1 0.100558 0.33805 0.463432
21747 1 0.0720515 0.00450017 0.463449
22298 1 0.086327 0.666344 0.487803
22300 1 0.114824 0.999665 0.487793
22304 1 0.086327 0.166344 0.487803
22306 1 0.114824 0.499665 0.487793
21767 1 0.186047 0.839386 0.463393
21765 1 0.157548 0.505533 0.463406
21761 1 0.186047 0.339386 0.463393
21759 1 0.157548 0.00553251 0.463406
22309 1 0.143325 0.33303 0.487782
22310 1 0.171829 0.666371 0.487769
22315 1 0.143325 0.83303 0.487782
22316 1 0.171829 0.166371 0.487769
21777 1 0.243042 0.507244 0.46336
21771 1 0.243042 0.00724361 0.46336
21768 1 0.214545 0.173283 0.463378
21762 1 0.214545 0.673282 0.463378
22312 1 0.200334 0.999672 0.487755
22318 1 0.200334 0.499672 0.487755
22321 1 0.22884 0.332911 0.48774
22322 1 0.257344 0.666079 0.487725
22327 1 0.22884 0.832911 0.48774
22328 1 0.257344 0.166079 0.487725
21780 1 0.300021 0.175592 0.463318
21779 1 0.271535 0.841321 0.46334
21774 1 0.300021 0.675593 0.463318
21773 1 0.271535 0.341321 0.46334
22324 1 0.285846 0.999171 0.487709
22330 1 0.285846 0.499171 0.487709
22333 1 0.314342 0.332179 0.487695
22339 1 0.314342 0.832178 0.487695
21792 1 0.385408 0.181119 0.463237
21791 1 0.356965 0.845238 0.463268
21789 1 0.3285 0.510166 0.463295
21786 1 0.385408 0.681117 0.463237
21785 1 0.356965 0.345239 0.463268
21783 1 0.3285 0.0101654 0.463295
22334 1 0.342831 0.665065 0.487683
22336 1 0.371309 0.997737 0.487675
22340 1 0.342831 0.165066 0.487683
22342 1 0.371309 0.497735 0.487675
22352 1 0.428201 0.160614 0.487691
21803 1 0.442172 0.858257 0.46313
21801 1 0.41381 0.518362 0.463194
21797 1 0.442172 0.358254 0.46313
21795 1 0.41381 0.0183624 0.463194
22345 1 0.399768 0.329873 0.487674
22346 1 0.428201 0.660617 0.487692
22351 1 0.399768 0.829874 0.487674
22363 1 0.485356 0.791789 0.488034
22348 1 0.456682 0.987602 0.48776
21798 1 0.470623 0.708678 0.462975
22357 1 0.485356 0.29179 0.488034
21804 1 0.470623 0.208678 0.462975
21813 1 0.5 0.625001 0.46303
22354 1 0.456682 0.487604 0.48776
22289 3 0.0146684 0.330294 0.512186
22290 1 0.0434988 0.662293 0.512174
22295 3 0.0146684 0.830295 0.512186
22296 1 0.0434988 0.162293 0.512174
22838 3 0.000393975 0.659792 0.536557
22840 3 0.0289429 0.992712 0.536557
22841 3 0.0146684 0.322257 0.560928
22842 1 0.043526 0.653935 0.56085
22844 3 0.000393975 0.159793 0.536557
22846 3 0.0289429 0.492711 0.536557
22847 3 0.0146684 0.822258 0.560928
22848 1 0.043526 0.153935 0.56085
22849 1 0.057888 0.324331 0.536519
22855 1 0.057888 0.824331 0.536519
22299 1 0.0720682 0.995191 0.512166
22301 1 0.100586 0.32806 0.512164
22302 1 0.12909 0.660989 0.512156
22305 1 0.0720682 0.495191 0.512166
22307 1 0.100586 0.82806 0.512164
22308 1 0.12909 0.160989 0.512156
22850 1 0.086344 0.656796 0.536532
22851 1 0.0720626 0.98618 0.560905
22852 1 0.114848 0.989403 0.536527
22853 1 0.100587 0.318379 0.560898
22854 1 0.129107 0.650573 0.560885
22856 1 0.086344 0.156796 0.536532
22857 1 0.0720626 0.48618 0.560905
22858 1 0.114848 0.489403 0.536527
22859 1 0.100587 0.818379 0.560898
22860 1 0.129107 0.150573 0.560885
22311 1 0.157602 0.993895 0.512143
22313 1 0.186115 0.326683 0.51213
22317 1 0.157602 0.493895 0.512143
22319 1 0.186115 0.826683 0.51213
22861 1 0.143363 0.321963 0.536515
22862 1 0.171883 0.654337 0.536502
22863 1 0.157637 0.982615 0.560871
22865 1 0.186166 0.314393 0.560858
22867 1 0.143363 0.821963 0.536515
22868 1 0.171883 0.154337 0.536502
22869 1 0.157637 0.482615 0.560871
22871 1 0.186166 0.814393 0.560858
22314 1 0.214629 0.659319 0.512117
22320 1 0.214629 0.159319 0.512117
22323 1 0.243144 0.991747 0.512104
22329 1 0.243144 0.491747 0.512104
22864 1 0.200405 0.986489 0.536489
22866 1 0.214696 0.645838 0.560847
22870 1 0.200405 0.486489 0.536489
22872 1 0.214696 0.145838 0.560847
22873 1 0.228928 0.318349 0.536478
22874 1 0.257453 0.649821 0.536468
22875 1 0.243227 0.97684 0.560839
22879 1 0.228928 0.818349 0.536478
22880 1 0.257453 0.149821 0.536468
22881 1 0.243227 0.47684 0.560839
22325 1 0.271659 0.323904 0.512092
22326 1 0.300171 0.655695 0.512084
22331 1 0.271659 0.823904 0.512092
22332 1 0.300171 0.155696 0.512084
22876 1 0.285977 0.980772 0.536463
22877 1 0.271758 0.307255 0.560835
22878 1 0.300288 0.636894 0.56084
22882 1 0.285977 0.480772 0.536463
22883 1 0.271758 0.807255 0.560835
22884 1 0.300288 0.136893 0.56084
22885 1 0.3145 0.311003 0.536465
22891 1 0.3145 0.811004 0.536465
22335 1 0.328682 0.986965 0.512081
22337 1 0.357189 0.31739 0.512087
22338 1 0.385692 0.646309 0.512112
22341 1 0.328681 0.486965 0.512081
22343 1 0.357189 0.817391 0.512087
22344 1 0.385692 0.146307 0.512112
22886 1 0.343022 0.640161 0.536479
22887 1 0.328816 0.965442 0.560857
22888 1 0.37154 0.967602 0.536513
22889 1 0.35734 0.292394 0.560894
22890 1 0.385858 0.616979 0.560964
22892 1 0.343022 0.14016 0.536479
22893 1 0.328816 0.465442 0.560857
22894 1 0.37154 0.467603 0.536513
22895 1 0.35734 0.792394 0.560894
22896 1 0.385858 0.11698 0.560964
22347 1 0.414193 0.972287 0.512172
22349 1 0.442716 0.292019 0.512302
22353 1 0.414193 0.472289 0.512172
22355 1 0.442716 0.792016 0.512302
22897 1 0.400055 0.292203 0.536584
22898 1 0.428568 0.611932 0.53672
22899 1 0.414369 0.93809 0.561083
22901 1 0.442874 0.254342 0.561286
22903 1 0.400055 0.792201 0.536583
22904 1 0.428568 0.111934 0.53672
22905 1 0.414369 0.438088 0.561083
22907 1 0.442874 0.754343 0.561286
22350 1 0.471258 0.596246 0.512651
22356 1 0.471258 0.0962488 0.512651
22900 1 0.457076 0.92342 0.537002
22902 1 0.4714 0.565668 0.561539
22906 1 0.457076 0.423418 0.537002
22908 1 0.4714 0.0656662 0.561539
22365 1 0.5 0.375 0.513144
22909 1 0.485638 0.225584 0.537357
22915 1 0.485638 0.725586 0.537357
22911 1 0.5 0.875 0.561642
23390 3 0.000393975 0.652065 0.585299
23392 3 0.0289429 0.984535 0.585299
23393 3 0.0146684 0.31444 0.609671
23394 3 0.0432173 0.646641 0.609671
23396 3 0.000393975 0.152066 0.585299
23398 3 0.0289429 0.484535 0.585299
23399 3 0.0146684 0.814441 0.609671
23400 3 0.0432173 0.146642 0.609671
23401 1 0.0578246 0.315987 0.585274
23407 1 0.0578246 0.815987 0.585274
23402 1 0.0863014 0.647806 0.585269
23403 1 0.0720283 0.977745 0.609622
23404 1 0.114842 0.979705 0.58525
23405 1 0.100574 0.309311 0.609608
23406 1 0.129111 0.640808 0.609601
23408 1 0.0863014 0.147806 0.585269
23409 1 0.0720283 0.477745 0.609622
23410 1 0.114842 0.479705 0.58525
23411 1 0.100574 0.809311 0.609608
23412 1 0.129111 0.140808 0.609601
23413 1 0.143377 0.311469 0.585237
23414 1 0.171913 0.642972 0.585225
23415 1 0.157649 0.972132 0.60959
23417 1 0.186187 0.303111 0.609578
23419 1 0.143377 0.811469 0.585237
23420 1 0.171913 0.142972 0.585225
23421 1 0.157649 0.472132 0.60959
23423 1 0.186187 0.803111 0.609578
23416 1 0.200448 0.974126 0.585214
23418 1 0.214726 0.633636 0.60957
23422 1 0.200448 0.474126 0.585214
23424 1 0.214726 0.133636 0.60957
23425 1 0.228984 0.304827 0.585206
23426 1 0.257519 0.634931 0.585203
23427 1 0.243263 0.963586 0.609568
23431 1 0.228984 0.804827 0.585206
23432 1 0.257519 0.134931 0.585203
23433 1 0.243263 0.463586 0.609568
23428 1 0.286052 0.964269 0.585209
23429 1 0.271799 0.292816 0.609574
23430 1 0.30033 0.621138 0.609592
23434 1 0.286052 0.464269 0.585209
23435 1 0.271799 0.792816 0.609574
23436 1 0.30033 0.121138 0.609592
23437 1 0.314583 0.292599 0.585227
23443 1 0.314583 0.792599 0.585227
23438 1 0.343108 0.619555 0.585264
23439 1 0.328856 0.948306 0.609627
23440 1 0.371626 0.944626 0.585328
23441 1 0.357375 0.273991 0.609684
23442 1 0.385887 0.597831 0.609771
23444 1 0.343108 0.119555 0.585264
23445 1 0.328856 0.448306 0.609627
23446 1 0.371626 0.444626 0.585328
23447 1 0.357375 0.773992 0.609684
23448 1 0.385887 0.0978302 0.609771
23449 1 0.400137 0.26719 0.58543
23450 1 0.428643 0.586661 0.585583
23451 1 0.414395 0.919534 0.609891
23453 1 0.44291 0.239167 0.610033
23455 1 0.400137 0.767191 0.58543
23456 1 0.428643 0.0866598 0.585582
23457 1 0.414395 0.419534 0.609891
23459 1 0.44291 0.739166 0.610033
23452 1 0.45716 0.903096 0.585766
23454 1 0.471445 0.557374 0.610154
23458 1 0.45716 0.403097 0.585766
23460 1 0.471445 0.057375 0.610154
23461 1 0.485714 0.217799 0.585891
23467 1 0.485714 0.717797 0.585891
23469 1 0.5 0.375 0.610201
23944 3 0.0289429 0.976676 0.634042
23945 3 0.0146684 0.306977 0.658413
23946 3 0.0432173 0.638792 0.658413
23950 3 0.0289429 0.476676 0.634042
23951 3 0.0146684 0.806978 0.658413
23952 3 0.0432173 0.138792 0.658413
23953 1 0.0578197 0.307258 0.633957
23959 1 0.0578197 0.807258 0.633957
24496 3 0.0289429 0.969257 0.682784
24502 3 0.0289429 0.469257 0.682784
24505 3 0.0574918 0.300815 0.682784
24511 3 0.0574918 0.800815 0.682784
23954 1 0.0863357 0.639125 0.633968
23955 1 0.0721248 0.969662 0.658327
23956 1 0.114852 0.970579 0.633965
23957 1 0.100562 0.30084 0.658344
23958 1 0.12909 0.631949 0.658324
23960 1 0.0863358 0.139124 0.633968
23961 1 0.0721248 0.469662 0.658327
23962 1 0.114852 0.470579 0.633965
23963 1 0.100562 0.80084 0.658344
23964 1 0.12909 0.131949 0.658324
24506 1 0.0862484 0.631841 0.682699
24508 1 0.114769 0.962664 0.682697
24512 1 0.0862484 0.131841 0.682699
24514 1 0.114769 0.462664 0.682697
23965 1 0.143375 0.301784 0.633955
23966 1 0.171915 0.632687 0.633942
23967 1 0.157628 0.962795 0.658306
23969 1 0.186176 0.293226 0.658293
23971 1 0.143375 0.801784 0.633955
23972 1 0.171915 0.132687 0.633942
23973 1 0.157628 0.462795 0.658306
23975 1 0.186176 0.793226 0.658293
24517 1 0.143329 0.293399 0.682666
24518 1 0.171885 0.623831 0.682648
24523 1 0.143329 0.793399 0.682666
24524 1 0.171885 0.123831 0.682648
23968 1 0.200456 0.963137 0.633933
23970 1 0.214719 0.623128 0.658289
23974 1 0.200456 0.463137 0.633933
23976 1 0.214719 0.123128 0.658289
23977 1 0.228995 0.293032 0.63393
23978 1 0.257532 0.622266 0.633936
23979 1 0.243257 0.95242 0.658295
23983 1 0.228995 0.793032 0.63393
23984 1 0.257532 0.122266 0.633936
23985 1 0.243257 0.45242 0.658295
24520 1 0.200436 0.953762 0.682645
24526 1 0.200436 0.453762 0.682645
24529 1 0.228977 0.283137 0.682651
24530 1 0.257511 0.611908 0.682665
24535 1 0.228977 0.783137 0.682651
24536 1 0.257511 0.111908 0.682665
23980 1 0.286065 0.950699 0.633953
23981 1 0.27179 0.281015 0.65831
23982 1 0.300319 0.608789 0.658338
23986 1 0.286065 0.450699 0.633953
23987 1 0.27179 0.781015 0.65831
23988 1 0.300319 0.108789 0.658338
23989 1 0.314592 0.278155 0.633985
23995 1 0.314592 0.778155 0.633985
24532 1 0.286042 0.939994 0.68269
24538 1 0.286042 0.439994 0.68269
24541 1 0.314568 0.267288 0.682728
24547 1 0.314568 0.767288 0.682728
23990 1 0.343113 0.604434 0.634035
23991 1 0.328843 0.9356 0.658383
23992 1 0.371627 0.929315 0.634109
23993 1 0.357361 0.261322 0.658446
23994 1 0.385875 0.585862 0.658527
23996 1 0.343113 0.104434 0.634035
23997 1 0.328843 0.4356 0.658383