ITEM: TIMESTEP
78
ITEM: NUMBER OF ATOMS
2342
ITEM: BOX BOUNDS ss pp ss
-4.0826385614000003e+01 4.0826373535000002e+01
-4.1208122699999999e-01 4.5329187729999996e+00
-4.1585736442000005e+01 4.1249249110000001e+01
ITEM: ATOMS id type xs ys zs
17356 3 0.285883 0.090297 0.0491324
17362 3 0.285883 0.590296 0.0491324
17365 3 0.314432 0.427787 0.0491324
17371 3 0.314432 0.927788 0.0491324
16815 3 0.328707 0.0979412 0.0247612
16817 3 0.357255 0.435519 0.0247612
16818 3 0.385804 0.773235 0.0247612
16821 3 0.328707 0.597941 0.0247612
16823 3 0.357255 0.935519 0.0247612
16824 3 0.385804 0.273236 0.0247612
17366 3 0.342981 0.765462 0.0491324
17368 3 0.37153 0.103304 0.0491324
17372 3 0.342981 0.265462 0.0491324
17374 3 0.37153 0.603303 0.0491324
16827 3 0.414353 0.111068 0.0247612
16829 3 0.442902 0.448992 0.0247612
16833 3 0.414353 0.611068 0.0247612
16835 3 0.442902 0.948993 0.0247612
17377 1 0.400144 0.4398 0.0492238
17378 1 0.428771 0.778667 0.0492158
17383 1 0.400144 0.9398 0.0492238
17384 1 0.428771 0.278667 0.0492158
16828 3 0.457177 0.11832 0.00038994
16830 3 0.471451 0.78698 0.0247612
16834 3 0.457177 0.61832 0.00038994
16836 3 0.471451 0.286981 0.0247612
17380 1 0.457308 0.118231 0.049478
17386 1 0.457308 0.618231 0.049478
16837 3 0.485726 0.456102 0.00038994
16839 3 0.5 0.125001 0.0247612
16843 3 0.485726 0.956102 0.00038994
16845 3 0.5 0.625 0.0247612
17389 1 0.485809 0.455935 0.049516
17395 1 0.485809 0.955935 0.049516
17897 3 0.185962 0.403913 0.122246
17903 3 0.185962 0.903913 0.122246
17355 3 0.24306 0.0825222 0.0735036
17361 3 0.24306 0.582522 0.0735036
17896 3 0.200236 0.0747629 0.0978748
17898 3 0.214511 0.74092 0.122246
17902 3 0.200236 0.574762 0.0978748
17904 3 0.214511 0.24092 0.122246
17905 3 0.228785 0.411828 0.0978748
17906 3 0.257334 0.74914 0.0978748
17907 1 0.243253 0.0785741 0.12247
17911 3 0.228785 0.911828 0.0978748
17912 3 0.257334 0.24914 0.0978748
17913 1 0.243253 0.578574 0.12247
17357 3 0.271609 0.419839 0.0735036
17358 3 0.300158 0.757378 0.0735036
17363 3 0.271609 0.91984 0.0735036
17364 3 0.300158 0.257379 0.0735036
17908 1 0.286013 0.0873529 0.0981165
17909 1 0.271807 0.416099 0.122566
17910 1 0.30029 0.753679 0.122511
17914 1 0.286013 0.587353 0.0981165
17915 1 0.271807 0.916099 0.122566
17916 1 0.30029 0.253679 0.122511
17917 1 0.314591 0.424882 0.0982326
17923 1 0.314591 0.924882 0.0982326
17367 1 0.328783 0.0955944 0.0738087
17369 1 0.357375 0.433067 0.0738458
17370 1 0.38588 0.770496 0.0737321
17373 1 0.328783 0.595594 0.0738087
17375 1 0.357375 0.933067 0.0738458
17376 1 0.38588 0.270496 0.0737321
17918 1 0.343097 0.762544 0.0981521
17919 1 0.32883 0.0916395 0.122518
17920 1 0.371637 0.10048 0.0981032
17921 1 0.357363 0.429668 0.122485
17922 1 0.38589 0.768039 0.122453
17924 1 0.343097 0.262544 0.0981521
17925 1 0.32883 0.591639 0.122518
17926 1 0.371637 0.60048 0.0981032
17927 1 0.357363 0.929668 0.122485
17928 1 0.38589 0.268039 0.122453
17379 1 0.414459 0.108815 0.0736962
17381 1 0.443003 0.447697 0.0737958
17385 1 0.414459 0.608815 0.0736962
17387 1 0.443003 0.947697 0.0737958
17929 1 0.400164 0.438614 0.0980529
17930 1 0.428682 0.777198 0.0980899
17931 1 0.414405 0.106618 0.122454
17933 1 0.442925 0.445519 0.122499
17935 1 0.400164 0.938614 0.0980529
17936 1 0.428682 0.277198 0.0980899
17937 1 0.414405 0.606618 0.122454
17939 1 0.442925 0.945519 0.122499
17382 1 0.471515 0.786341 0.0738499
17388 1 0.471515 0.286341 0.0738499
17932 1 0.457213 0.116078 0.0981752
17934 1 0.47146 0.784642 0.12255
17938 1 0.457213 0.616078 0.0981752
17940 1 0.47146 0.284642 0.12255
17941 1 0.48574 0.454786 0.0982216
17947 1 0.48574 0.954786 0.0982216
17397 1 0.499999 0.624391 0.0738567
17943 1 0.499995 0.123764 0.122571
17391 1 0.499998 0.124391 0.0738567
17949 1 0.499995 0.623764 0.122571
18438 3 0.128864 0.725197 0.170988
18444 3 0.128864 0.225197 0.170988
18445 3 0.143139 0.396243 0.146617
18446 3 0.171687 0.732889 0.146617
18447 3 0.157413 0.0617087 0.170988
18449 1 0.186158 0.398886 0.171241
18451 3 0.143139 0.896244 0.146617
18452 3 0.171687 0.23289 0.146617
18453 3 0.157413 0.561708 0.170988
18455 1 0.186158 0.898886 0.171241
18448 1 0.200198 0.0686564 0.146693
18450 1 0.214632 0.735292 0.171193
18454 1 0.200198 0.568656 0.146693
18456 1 0.214632 0.235292 0.171193
18457 1 0.22893 0.40693 0.14689
18458 1 0.25745 0.744538 0.146848
18459 1 0.243148 0.0727359 0.171177
18463 1 0.22893 0.90693 0.14689
18464 1 0.25745 0.244538 0.146848
18465 1 0.243148 0.572736 0.171177
18460 1 0.286001 0.0823143 0.146861
18461 1 0.271693 0.410404 0.171183
18462 1 0.300235 0.748385 0.171185
18466 1 0.286001 0.582314 0.146861
18467 1 0.271693 0.910404 0.171183
18468 1 0.300235 0.248385 0.171185
18469 1 0.314536 0.420159 0.146852
18475 1 0.314536 0.920159 0.146852
18470 1 0.343075 0.758412 0.146841
18471 1 0.328776 0.0866196 0.171181
18472 1 0.371607 0.0968891 0.146824
18473 1 0.357316 0.425221 0.171181
18474 1 0.385849 0.764162 0.171184
18476 1 0.343075 0.258412 0.146841
18477 1 0.328776 0.58662 0.171181
18478 1 0.371607 0.596889 0.146824
18479 1 0.357316 0.925221 0.171181
18480 1 0.385849 0.264162 0.171184
18481 1 0.400131 0.435648 0.146823
18482 1 0.428654 0.774694 0.146847
18483 1 0.414379 0.103433 0.1712
18485 1 0.44291 0.443046 0.171229
18487 1 0.400131 0.935648 0.146823
18488 1 0.428654 0.274694 0.146847
18489 1 0.414379 0.603433 0.1712
18491 1 0.44291 0.943046 0.171229
18484 1 0.457184 0.114049 0.146886
18486 1 0.471448 0.782954 0.171259
18490 1 0.457184 0.614049 0.146886
18492 1 0.471448 0.282954 0.171259
18493 1 0.485722 0.453613 0.146916
18499 1 0.485722 0.953613 0.146916
18495 1 0.49999 0.123063 0.171274
18501 1 0.49999 0.623063 0.171274
18988 3 0.11459 0.0540439 0.19536
18989 3 0.100315 0.382809 0.219731
18990 1 0.128891 0.718826 0.219755
18994 3 0.11459 0.554043 0.19536
18995 3 0.100315 0.88281 0.219731
18996 1 0.128891 0.218826 0.219755
19538 3 0.0860407 0.711524 0.244102
19540 1 0.114618 0.0472818 0.244127
19544 3 0.0860407 0.211524 0.244102
19546 1 0.114618 0.547282 0.244127
18997 3 0.143139 0.390391 0.19536
18998 1 0.171903 0.726995 0.195624
18999 1 0.15756 0.0550848 0.219868
19001 1 0.186064 0.391908 0.21989
19003 3 0.143139 0.890392 0.19536
19004 1 0.171903 0.226995 0.195624
19005 1 0.15756 0.555085 0.219868
19007 1 0.186064 0.891908 0.21989
19549 1 0.143288 0.383316 0.244217
19550 1 0.171758 0.719703 0.244201
19555 1 0.143288 0.883316 0.244217
19556 1 0.171758 0.219704 0.244201
19000 1 0.200378 0.0638375 0.195562
19002 1 0.214593 0.728806 0.219878
19006 1 0.200378 0.563838 0.195562
19008 1 0.214593 0.228806 0.219878
19009 1 0.228879 0.400794 0.195522
19010 1 0.257399 0.738294 0.195511
19011 1 0.243109 0.0660204 0.219852
19015 1 0.228879 0.900794 0.195522
19016 1 0.257399 0.238294 0.195511
19017 1 0.243109 0.56602 0.219852
19552 1 0.200289 0.056539 0.244211
19558 1 0.200289 0.556539 0.244211
19561 1 0.228812 0.393589 0.244196
19562 1 0.257338 0.730991 0.244184
19567 1 0.228812 0.893589 0.244196
19568 1 0.257338 0.230991 0.244184
19012 1 0.285933 0.0761567 0.195511
19013 1 0.271636 0.403666 0.219845
19014 1 0.300172 0.741785 0.219847
19018 1 0.285933 0.576157 0.195511
19019 1 0.271636 0.903666 0.219845
19020 1 0.300172 0.241785 0.219847
19021 1 0.314475 0.414397 0.195516
19027 1 0.314475 0.914397 0.195516
19564 1 0.285868 0.0688758 0.244179
19570 1 0.285868 0.568876 0.244179
19573 1 0.314404 0.407305 0.244181
19579 1 0.314404 0.907305 0.244181
19022 1 0.343016 0.753041 0.195522
19023 1 0.328712 0.0803825 0.219853
19024 1 0.371556 0.0921066 0.19553
19025 1 0.357255 0.419485 0.219865
19026 1 0.385798 0.759108 0.219883
19028 1 0.343016 0.253041 0.195522
19029 1 0.328712 0.580383 0.219853
19030 1 0.371556 0.592107 0.19553
19031 1 0.357255 0.919485 0.219865
19032 1 0.385798 0.259108 0.219883
19574 1 0.342946 0.746328 0.244191
19576 1 0.371492 0.0859786 0.24421
19580 1 0.342946 0.246328 0.244191
19582 1 0.371492 0.585979 0.24421
19033 1 0.400094 0.431592 0.195547
19034 1 0.428631 0.771484 0.195573
19035 1 0.414342 0.0992479 0.21991
19037 1 0.442888 0.439873 0.21994
19039 1 0.400094 0.931592 0.195547
19040 1 0.428631 0.271484 0.195573
19041 1 0.414342 0.599248 0.21991
19043 1 0.442888 0.939873 0.21994
19585 1 0.400041 0.426271 0.244237
19586 1 0.428593 0.767202 0.24427
19591 1 0.400041 0.926271 0.244237
19592 1 0.428593 0.267202 0.24427
19045 1 0.485715 0.452308 0.195623
19603 1 0.485703 0.950639 0.244327
19594 1 0.457148 0.608706 0.244303
19597 1 0.485703 0.450639 0.244327
19588 1 0.457148 0.108706 0.244303
19051 1 0.485715 0.952308 0.195623
19036 1 0.457172 0.111749 0.195602
19038 1 0.471436 0.780906 0.219967
19042 1 0.457172 0.611749 0.195602
19044 1 0.471436 0.280905 0.219967
19047 1 0.499985 0.122209 0.219982
19053 1 0.499985 0.622209 0.219982
20089 3 0.0574918 0.368918 0.292845
20095 3 0.0574918 0.868919 0.292845
19539 3 0.0717663 0.0402165 0.268473
19541 1 0.100343 0.375752 0.268496
19542 1 0.129014 0.711547 0.268576
19545 3 0.0717663 0.540216 0.268473
19547 1 0.100343 0.875752 0.268496
19548 1 0.129014 0.211547 0.268576
20090 1 0.086069 0.704243 0.292866
20092 1 0.114742 0.0397847 0.292941
20096 1 0.086069 0.204243 0.292866
20098 1 0.114742 0.539785 0.292941
19551 1 0.157477 0.0476415 0.268543
19553 1 0.185992 0.384108 0.268541
19557 1 0.157477 0.547642 0.268543
19559 1 0.185992 0.884108 0.268541
20101 1 0.143203 0.375598 0.292899
20102 1 0.171711 0.711723 0.292887
20107 1 0.143203 0.875598 0.292899
20108 1 0.171711 0.211723 0.292887
19554 1 0.214513 0.720944 0.268535
19560 1 0.214513 0.220944 0.268535
19563 1 0.243038 0.058119 0.268524
19569 1 0.243038 0.558119 0.268524
20104 1 0.200223 0.0482084 0.292876
20110 1 0.200223 0.548208 0.292876
20113 1 0.228743 0.385078 0.292866
20114 1 0.257265 0.722366 0.292854
20119 1 0.228743 0.885078 0.292866
20120 1 0.257265 0.222366 0.292854
19565 1 0.271565 0.395723 0.268515
19566 1 0.300096 0.733882 0.268511
19571 1 0.271565 0.895723 0.268515
19572 1 0.300096 0.233882 0.268511
20131 1 0.31432 0.898664 0.292843
20116 1 0.285789 0.0601843 0.292846
20122 1 0.285789 0.560184 0.292846
20125 1 0.31432 0.398664 0.292843
19575 1 0.328633 0.072689 0.268516
19577 1 0.357178 0.41222 0.26853
19578 1 0.385729 0.752529 0.268555
19581 1 0.328633 0.572689 0.268516
19583 1 0.357178 0.912221 0.26853
19584 1 0.385729 0.252529 0.268555
20134 1 0.371408 0.578039 0.292868
20132 1 0.34286 0.237912 0.292849
20126 1 0.34286 0.737912 0.292849
20128 1 0.371408 0.0780391 0.292868
20144 1 0.428533 0.261285 0.292939
20143 1 0.399966 0.91915 0.292898
20138 1 0.428533 0.761285 0.292939
20137 1 0.399966 0.41915 0.292898
19587 1 0.414286 0.0936462 0.268589
19589 1 0.442847 0.435547 0.268627
19593 1 0.414286 0.593646 0.268589
19595 1 0.442847 0.935547 0.268627
20146 1 0.457105 0.604393 0.292981
20140 1 0.457105 0.104393 0.292981
19590 1 0.471411 0.778111 0.268661
19596 1 0.471411 0.278111 0.268661
20149 1 0.485681 0.448284 0.293014
20155 1 0.485681 0.948284 0.293014
19605 1 0.499976 0.621123 0.268681
19599 1 0.499976 0.121124 0.268681
20647 3 0.0574918 0.861382 0.341587
20641 3 0.0574918 0.361382 0.341587
20640 3 0.0432173 0.190022 0.365958
20639 3 0.0146684 0.855386 0.365958
20638 3 0.0289429 0.526475 0.341587
20634 3 0.0432173 0.690021 0.365958
20633 3 0.0146684 0.355385 0.365958
20632 3 0.0289429 0.0264753 0.341587
20082 3 0.0432173 0.697662 0.317216
20088 3 0.0432173 0.197662 0.317216
20652 1 0.128933 0.194676 0.365967
20651 1 0.100426 0.859577 0.365985
20650 1 0.11467 0.531577 0.341624
20649 1 0.0719467 0.524689 0.366026
20648 1 0.0861971 0.196377 0.34167
20646 1 0.128933 0.694676 0.365967
20645 1 0.100426 0.359577 0.365985
20644 1 0.11467 0.0315773 0.341624
20643 1 0.0719467 0.0246886 0.366026
20642 1 0.0861971 0.696377 0.34167
20091 1 0.0717947 0.032784 0.317234
20093 1 0.100471 0.368053 0.317307
20094 1 0.128934 0.703572 0.317261
20097 1 0.0717947 0.532784 0.317234
20099 1 0.100471 0.868053 0.317307
20100 1 0.128934 0.203572 0.317261
20663 1 0.185934 0.865736 0.365932
20661 1 0.157433 0.530061 0.365948
20660 1 0.171682 0.202759 0.341585
20659 1 0.143179 0.867014 0.341604
20657 1 0.185934 0.365736 0.365932
20655 1 0.157433 0.0300609 0.365948
20654 1 0.171682 0.702759 0.341585
20653 1 0.143179 0.367014 0.341604
20103 1 0.15744 0.039361 0.317243
20105 1 0.185947 0.375475 0.317227
20109 1 0.15744 0.539361 0.317243
20111 1 0.185947 0.875475 0.317227
20673 1 0.242933 0.538186 0.365897
20672 1 0.257203 0.212257 0.341537
20671 1 0.228695 0.875306 0.341554
20667 1 0.242933 0.0381859 0.365897
20666 1 0.257203 0.712257 0.341537
20665 1 0.228695 0.375306 0.341554
20664 1 0.214433 0.201749 0.365915
20662 1 0.200189 0.538837 0.341569
20658 1 0.214433 0.701749 0.365915
20656 1 0.200189 0.0388367 0.341569
20106 1 0.214459 0.711959 0.317214
20112 1 0.214459 0.211959 0.317214
20115 1 0.242973 0.0488679 0.3172
20121 1 0.242973 0.548868 0.3172
20683 1 0.314233 0.888065 0.341508
20677 1 0.314233 0.388065 0.341508
20676 1 0.29994 0.21278 0.365857
20675 1 0.271435 0.875159 0.365877
20674 1 0.285715 0.549801 0.341521
20670 1 0.29994 0.71278 0.365857
20669 1 0.271435 0.375159 0.365877
20668 1 0.285715 0.0498005 0.341521
20117 1 0.27149 0.386285 0.317187
20118 1 0.300012 0.724336 0.317177
20123 1 0.27149 0.886285 0.317187
20124 1 0.300012 0.224336 0.317177
20688 1 0.385516 0.231633 0.365833
20687 1 0.356976 0.890722 0.365831
20686 1 0.371302 0.567508 0.341509
20685 1 0.328452 0.551215 0.365841
20684 1 0.342761 0.227219 0.341503
20682 1 0.385516 0.731633 0.365833
20681 1 0.356976 0.390722 0.365831
20680 1 0.371302 0.067508 0.341509
20679 1 0.328452 0.0512153 0.365841
20678 1 0.342761 0.727219 0.341503
20136 1 0.385636 0.243728 0.317202
20135 1 0.357083 0.902887 0.317181
20133 1 0.328542 0.563154 0.317174
20127 1 0.328542 0.0631539 0.317174
20129 1 0.357083 0.402887 0.317181
20130 1 0.385636 0.743728 0.317202
20699 1 0.442676 0.919473 0.3659
20697 1 0.414081 0.574391 0.365855
20696 1 0.42844 0.252585 0.341572
20695 1 0.399861 0.909207 0.341532
20693 1 0.442676 0.419473 0.3659
20691 1 0.414081 0.0743916 0.365855
20690 1 0.42844 0.752585 0.341572
20689 1 0.399861 0.409207 0.341532
20147 1 0.442782 0.92927 0.317284
20145 1 0.414203 0.585832 0.317238
20141 1 0.442782 0.42927 0.317284
20139 1 0.414203 0.085832 0.317238
20700 1 0.471297 0.267144 0.365958
20698 1 0.457036 0.597777 0.341625
20694 1 0.471297 0.767144 0.365958
20692 1 0.457036 0.0977765 0.341625
20148 1 0.47137 0.273953 0.31733
20142 1 0.47137 0.773953 0.31733
20707 1 0.485644 0.944591 0.341672
20701 1 0.485644 0.444591 0.341672
20151 1 0.499961 0.119541 0.317359
20703 1 0.499934 0.116957 0.366001
20157 1 0.499961 0.619541 0.317359
20709 1 0.499934 0.616957 0.366001
21751 1 0.0578605 0.843975 0.439117
21745 1 0.0578605 0.343975 0.439117
21742 3 0.0289429 0.510725 0.439072
21740 3 0.000393975 0.176786 0.439072
21736 3 0.0289429 0.010725 0.439072
21734 3 0.000393975 0.676785 0.439072
21199 1 0.0578211 0.852918 0.39041
21193 1 0.0578211 0.352918 0.39041
21192 1 0.043504 0.181321 0.414787
21191 3 0.0146684 0.847702 0.414701
21190 3 0.0289429 0.518786 0.390329
21188 3 0.000393975 0.184417 0.390329
21186 1 0.043504 0.681321 0.414787
21185 3 0.0146684 0.347701 0.414701
21184 3 0.0289429 0.0187869 0.390329
21182 3 0.000393975 0.684416 0.390329
21754 1 0.114768 0.512452 0.439073
21752 1 0.0862945 0.178083 0.439097
21748 1 0.114768 0.012452 0.439073
21746 1 0.0862945 0.678083 0.439097
21204 1 0.128982 0.184821 0.414692
21203 1 0.100505 0.850122 0.414714
21202 1 0.114713 0.522315 0.390336
21201 1 0.0720215 0.515647 0.414744
21200 1 0.0862267 0.187463 0.390356
21198 1 0.128982 0.684821 0.414692
21197 1 0.100505 0.350122 0.414714
21196 1 0.114713 0.0223155 0.390336
21195 1 0.0720215 0.0156471 0.414744
21194 1 0.0862267 0.687463 0.390356
21764 1 0.171737 0.181688 0.439036
21763 1 0.143251 0.84701 0.439054
21758 1 0.171737 0.681688 0.439036
21757 1 0.143251 0.34701 0.439054
21215 1 0.185958 0.85487 0.414658
21213 1 0.15747 0.519749 0.414675
21212 1 0.171695 0.192689 0.3903
21211 1 0.143201 0.857389 0.390317
21209 1 0.185958 0.35487 0.414658
21207 1 0.15747 0.0197486 0.414675
21206 1 0.171695 0.692689 0.3903
21205 1 0.143201 0.357389 0.390317
21776 1 0.257198 0.187074 0.438976
21775 1 0.228712 0.851647 0.438998
21770 1 0.257198 0.687074 0.438976
21769 1 0.228712 0.351647 0.438998
21766 1 0.200224 0.516543 0.439018
21760 1 0.200224 0.0165433 0.439018
21225 1 0.242935 0.525979 0.414618
21224 1 0.257175 0.200519 0.390243
21223 1 0.228681 0.864159 0.390265
21219 1 0.242935 0.025979 0.414618
21218 1 0.257175 0.700519 0.390243
21217 1 0.228681 0.364159 0.390265
21216 1 0.214447 0.190246 0.414639
21214 1 0.200188 0.52825 0.390283
21210 1 0.214447 0.690246 0.414639
21208 1 0.200188 0.0282503 0.390283
21787 1 0.314162 0.859306 0.438924
21781 1 0.314162 0.359305 0.438923
21778 1 0.285682 0.522912 0.438951
21772 1 0.285682 0.022912 0.438951
21235 1 0.314167 0.875052 0.390197
21229 1 0.314167 0.375052 0.390197
21228 1 0.29991 0.198899 0.414569
21227 1 0.271423 0.862155 0.414594
21226 1 0.28567 0.537438 0.39022
21222 1 0.29991 0.698899 0.414569
21221 1 0.271423 0.362155 0.414594
21220 1 0.28567 0.0374377 0.39022
21790 1 0.371117 0.534855 0.438857
21788 1 0.34264 0.196497 0.438892
21784 1 0.371117 0.0348539 0.438857
21782 1 0.34264 0.696498 0.438892
21240 1 0.385393 0.215034 0.414485
21239 1 0.35689 0.874968 0.414512
21238 1 0.371186 0.553443 0.390158
21237 1 0.328398 0.536397 0.414541
21236 1 0.34267 0.213608 0.390175
21234 1 0.385393 0.715034 0.414485
21233 1 0.35689 0.374968 0.414512
21232 1 0.371186 0.053443 0.390158
21231 1 0.328398 0.0363971 0.414541
21230 1 0.34267 0.713608 0.390175
21800 1 0.428101 0.217714 0.438778
21799 1 0.3996 0.874927 0.438818
21794 1 0.428101 0.717713 0.438778
21793 1 0.3996 0.374928 0.438818
21251 1 0.442489 0.903014 0.414466
21249 1 0.413919 0.557302 0.414466
21248 1 0.428293 0.239102 0.390168
21247 1 0.399723 0.895036 0.390153
21245 1 0.442489 0.403014 0.414466
21243 1 0.413919 0.0573014 0.414466
21242 1 0.428293 0.739102 0.390168
21241 1 0.399723 0.395036 0.390153
21802 1 0.456654 0.565581 0.438734
21796 1 0.456654 0.0655819 0.438734
21252 1 0.47114 0.254267 0.414509
21250 1 0.456909 0.586599 0.390214
21246 1 0.47114 0.754267 0.414509
21244 1 0.456909 0.0865986 0.390214
21811 1 0.485374 0.923364 0.438775
21805 1 0.485374 0.423362 0.438775
21259 1 0.485571 0.938039 0.390279
21255 1 0.499877 0.111887 0.41458
21253 1 0.485571 0.438038 0.390279
21261 1 0.499877 0.611887 0.41458
21744 1 0.0434844 0.172602 0.463452
21743 3 0.0146684 0.839738 0.463443
21738 1 0.0434844 0.672602 0.463452
21737 3 0.0146684 0.339738 0.463443
22286 3 0.000393975 0.668963 0.487814
22288 3 0.0289429 0.0024362 0.487814
22292 3 0.000393975 0.168964 0.487814
22294 3 0.0289429 0.502436 0.487814
22297 1 0.0578585 0.335004 0.487819
22303 1 0.0578585 0.835004 0.487819
21756 1 0.129028 0.174547 0.463434
21755 1 0.100542 0.840428 0.463451
21753 1 0.0720403 0.506474 0.463465
21750 1 0.129028 0.674547 0.463434
21749 1 0.100542 0.340428 0.463451
21747 1 0.0720403 0.00647418 0.463465
22298 1 0.0863119 0.668591 0.48782
22300 1 0.114803 0.00237709 0.48781
22304 1 0.0863119 0.168591 0.48782
22306 1 0.114803 0.502377 0.48781
21767 1 0.186008 0.843137 0.463399
21765 1 0.157519 0.508793 0.463417
21761 1 0.186008 0.343137 0.463399
21759 1 0.157519 0.00879271 0.463417
22309 1 0.143296 0.336239 0.487796
22310 1 0.171791 0.67011 0.48778
22315 1 0.143296 0.836239 0.487796
22316 1 0.171791 0.17011 0.48778
21777 1 0.242987 0.512328 0.46336
21771 1 0.242987 0.0123278 0.46336
21768 1 0.214498 0.177634 0.46338
21762 1 0.214498 0.677634 0.46338
22312 1 0.200286 0.00403816 0.487762
22318 1 0.200286 0.504038 0.487762
22321 1 0.228782 0.338046 0.487743
22322 1 0.257276 0.672157 0.487724
22327 1 0.228782 0.838046 0.487743
22328 1 0.257276 0.172157 0.487724
21780 1 0.299957 0.182554 0.463314
21779 1 0.271474 0.847273 0.463338
21774 1 0.299957 0.682554 0.463314
21773 1 0.271474 0.347273 0.463338
22324 1 0.285768 0.00638573 0.487704
22330 1 0.285768 0.506386 0.487704
22333 1 0.314255 0.340813 0.487684
22339 1 0.314255 0.840812 0.487684
21792 1 0.385364 0.192577 0.463216
21791 1 0.356904 0.854876 0.463255
21789 1 0.328434 0.51834 0.463287
21786 1 0.385364 0.692576 0.463216
21785 1 0.356904 0.354877 0.463255
21783 1 0.328434 0.0183395 0.463287
22334 1 0.342735 0.675559 0.487661
22336 1 0.371203 0.0108131 0.487635
22340 1 0.342735 0.17556 0.487661
22342 1 0.371203 0.510812 0.487635
21803 1 0.442263 0.874928 0.463096
21801 1 0.413815 0.532131 0.463167
21797 1 0.442263 0.374926 0.463096
21795 1 0.413815 0.0321322 0.463167
22345 1 0.399648 0.346864 0.487604
22346 1 0.428054 0.684287 0.487562
22351 1 0.399648 0.846866 0.487604
22352 1 0.428053 0.184285 0.487562
22348 1 0.456418 0.0243742 0.487498
22363 1 0.484871 0.874953 0.487344
22357 1 0.484871 0.374954 0.487344
21798 1 0.47078 0.725525 0.462978
21804 1 0.47078 0.225523 0.462978
21807 1 0.499676 0.0962251 0.463055
22354 1 0.456418 0.524377 0.487498
21813 1 0.499676 0.596225 0.463055
22289 3 0.0146684 0.331644 0.512186
22290 1 0.0434931 0.663966 0.512179
22295 3 0.0146684 0.831645 0.512186
22296 1 0.0434931 0.163966 0.512179
22838 3 0.000393975 0.661097 0.536557
22840 3 0.0289429 0.994094 0.536557
22841 3 0.0146684 0.323585 0.560928
22842 1 0.0435232 0.655614 0.560861
22844 3 0.000393975 0.161098 0.536557
22846 3 0.0289429 0.494094 0.536557
22847 3 0.0146684 0.823586 0.560928
22848 1 0.0435232 0.155614 0.560861
22849 1 0.0578799 0.326219 0.53653
22855 1 0.0578799 0.826219 0.53653
22299 1 0.0720552 0.997275 0.512179
22301 1 0.100566 0.33061 0.51218
22302 1 0.129063 0.664054 0.512172
22305 1 0.0720552 0.497275 0.512179
22307 1 0.100566 0.83061 0.51218
22308 1 0.129063 0.164054 0.512172
22850 1 0.0863287 0.659136 0.536548
22851 1 0.0720538 0.988286 0.560922
22852 1 0.114825 0.992254 0.536544
22853 1 0.100572 0.320969 0.560914
22854 1 0.129085 0.653697 0.560903
22856 1 0.0863287 0.159136 0.536548
22857 1 0.0720538 0.488286 0.560922
22858 1 0.114825 0.492254 0.536544
22859 1 0.100572 0.820969 0.560914
22860 1 0.129085 0.153697 0.560903
22311 1 0.157567 0.997509 0.512157
22313 1 0.18607 0.330928 0.512142
22317 1 0.157567 0.497509 0.512157
22319 1 0.18607 0.830928 0.512142
22861 1 0.143333 0.325366 0.536532
22862 1 0.171844 0.658348 0.536517
22863 1 0.157606 0.986318 0.560889
22865 1 0.186126 0.318776 0.560874
22867 1 0.143333 0.825367 0.536532
22868 1 0.171844 0.158348 0.536517
22869 1 0.157606 0.486318 0.560889
22871 1 0.186126 0.818776 0.560874
22314 1 0.214573 0.664334 0.512124
22320 1 0.214573 0.164334 0.512124
22323 1 0.243077 0.997704 0.512106
22329 1 0.243077 0.497704 0.512106
22864 1 0.200356 0.991238 0.536501
22866 1 0.214647 0.651045 0.560859
22870 1 0.200356 0.491238 0.536501
22872 1 0.214647 0.151045 0.560859
22873 1 0.228869 0.323996 0.536485
22874 1 0.257383 0.656557 0.53647
22875 1 0.243169 0.983032 0.560845
22879 1 0.228869 0.823996 0.536485
22880 1 0.257383 0.156557 0.53647
22881 1 0.243169 0.483032 0.560845
22325 1 0.27158 0.331016 0.51209
22326 1 0.300081 0.66425 0.512074
22331 1 0.27158 0.831016 0.51209
22332 1 0.300081 0.16425 0.512074
22876 1 0.285896 0.988857 0.536457
22877 1 0.271693 0.314641 0.560834
22878 1 0.300217 0.645742 0.560828
22882 1 0.285896 0.488856 0.536457
22883 1 0.271693 0.814641 0.560834
22884 1 0.300217 0.145741 0.560828
22885 1 0.314409 0.320803 0.536448
22891 1 0.314409 0.820804 0.536448
22335 1 0.328579 0.997422 0.51206
22337 1 0.35707 0.330489 0.512048
22338 1 0.38555 0.663337 0.51204
22341 1 0.328579 0.497421 0.51206
22343 1 0.35707 0.83049 0.512048
22344 1 0.38555 0.163335 0.51204
22886 1 0.342922 0.652252 0.536444
22887 1 0.328741 0.976141 0.560828
22888 1 0.371431 0.982856 0.53645
22889 1 0.357265 0.305481 0.56084
22890 1 0.385786 0.633098 0.560873
22892 1 0.342922 0.152251 0.536444
22893 1 0.328741 0.476142 0.560828
22894 1 0.371431 0.482858 0.53645
22895 1 0.357265 0.80548 0.56084
22896 1 0.385786 0.1331 0.560873
22347 1 0.414011 0.995645 0.512039
22349 1 0.442448 0.326585 0.512056
22353 1 0.414012 0.495647 0.512039
22355 1 0.442448 0.826582 0.512056
22897 1 0.399937 0.311939 0.536474
22898 1 0.428441 0.638094 0.536533
22899 1 0.414304 0.957872 0.560943
22901 1 0.44282 0.277779 0.561077
22903 1 0.399937 0.811937 0.536474
22904 1 0.428441 0.138097 0.536533
22905 1 0.414303 0.457869 0.560942
22907 1 0.44282 0.777782 0.561077
22350 1 0.470932 0.653786 0.512124
22356 1 0.470932 0.153788 0.512124
22900 1 0.456967 0.958036 0.536663
22902 1 0.471331 0.58946 0.561358
22906 1 0.456967 0.458033 0.536663
22908 1 0.471331 0.0894573 0.561358
22359 1 0.499609 0.958303 0.512396
22365 1 0.499609 0.458302 0.512396
22909 1 0.485513 0.262488 0.53701
22915 1 0.485513 0.762491 0.53701
22917 1 0.499895 0.391831 0.561712
22911 1 0.499895 0.89183 0.561712
23390 3 0.000393975 0.653338 0.585299
23392 3 0.0289429 0.98588 0.585299
23393 3 0.0146684 0.315722 0.609671
23394 1 0.0432875 0.648539 0.609725
23396 3 0.000393975 0.153338 0.585299
23398 3 0.0289429 0.48588 0.585299
23399 3 0.0146684 0.815722 0.609671
23400 1 0.0432875 0.148539 0.609725
23401 1 0.0578281 0.317884 0.585295
23407 1 0.0578281 0.817884 0.585295
23402 1 0.0863007 0.65012 0.585287
23403 1 0.0720528 0.979769 0.609646
23404 1 0.114832 0.982501 0.585269
23405 1 0.100581 0.311751 0.60963
23406 1 0.129104 0.643752 0.609623
23408 1 0.0863007 0.15012 0.585287
23409 1 0.0720528 0.479769 0.609646
23410 1 0.114832 0.482501 0.585269
23411 1 0.100581 0.811751 0.60963
23412 1 0.129104 0.143752 0.609623
23413 1 0.143358 0.314811 0.585257
23414 1 0.171884 0.646927 0.585244
23415 1 0.157632 0.975627 0.609613
23417 1 0.186162 0.30725 0.609599
23419 1 0.143358 0.814811 0.585257
23420 1 0.171884 0.146927 0.585244
23421 1 0.157632 0.475627 0.609613
23423 1 0.186162 0.80725 0.609599
23416 1 0.200412 0.978816 0.58523
23418 1 0.214695 0.638537 0.609586
23422 1 0.200412 0.478816 0.58523
23424 1 0.214695 0.138537 0.609586
23425 1 0.22894 0.310389 0.585217
23426 1 0.25747 0.641526 0.585206
23427 1 0.243229 0.969372 0.609576
23431 1 0.22894 0.810389 0.585217
23432 1 0.25747 0.141525 0.585206
23433 1 0.243229 0.469372 0.609576
23428 1 0.286 0.972088 0.585202
23429 1 0.271763 0.299622 0.609571
23430 1 0.300297 0.629108 0.609574
23434 1 0.286 0.472089 0.585202
23435 1 0.271763 0.799622 0.609571
23436 1 0.300297 0.129108 0.609574
23437 1 0.314531 0.301881 0.585204
23443 1 0.314531 0.80188 0.585204
23438 1 0.34306 0.630597 0.585219
23439 1 0.328828 0.957594 0.60959
23440 1 0.371586 0.957733 0.585253
23441 1 0.357355 0.284717 0.609623
23442 1 0.385876 0.609971 0.609684
23444 1 0.34306 0.130599 0.585219
23445 1 0.328828 0.457593 0.60959
23446 1 0.371586 0.457731 0.585253
23447 1 0.357355 0.784718 0.609623
23448 1 0.385876 0.10997 0.609684
23449 1 0.400107 0.2825 0.585321
23450 1 0.42862 0.603788 0.585439
23451 1 0.414389 0.932719 0.609785
23453 1 0.442897 0.252357 0.609935
23455 1 0.400107 0.782503 0.585321
23456 1 0.42862 0.103784 0.585439
23457 1 0.414389 0.432721 0.609785
23459 1 0.442897 0.752356 0.609935
23452 1 0.457128 0.920203 0.585641
23454 1 0.471417 0.56895 0.610117
23458 1 0.457128 0.420208 0.585641
23460 1 0.471417 0.0689498 0.610117
23461 1 0.485657 0.231712 0.585892
23467 1 0.485657 0.731707 0.585892
23463 1 0.499974 0.883829 0.610241
23469 1 0.499974 0.383831 0.610241
23944 3 0.0289429 0.977958 0.634042
23945 3 0.0146684 0.308192 0.658413
23946 3 0.0432173 0.640066 0.658413
23950 3 0.0289429 0.477958 0.634042
23951 3 0.0146684 0.808193 0.658413
23952 3 0.0432173 0.140066 0.658413
23953 1 0.0578406 0.309052 0.633988
23959 1 0.0578406 0.809052 0.633989
24496 3 0.0289429 0.970459 0.682784
24502 3 0.0289429 0.470459 0.682784
24505 3 0.0574918 0.302071 0.682784
24511 3 0.0574918 0.802072 0.682784
23954 1 0.0863494 0.641233 0.633994
23955 1 0.0721331 0.971402 0.658348
23956 1 0.114855 0.973119 0.633991
23957 1 0.100569 0.302977 0.658369
23958 1 0.12909 0.634524 0.658354
23960 1 0.0863494 0.141233 0.633994
23961 1 0.0721331 0.471402 0.658348
23962 1 0.114855 0.473119 0.633991
23963 1 0.100569 0.802977 0.658369
23964 1 0.12909 0.134524 0.658354
24506 1 0.0862525 0.633541 0.682716
24508 1 0.114771 0.964776 0.682727
24512 1 0.0862525 0.133541 0.682716
24514 1 0.114771 0.464776 0.682727
23965 1 0.143368 0.304818 0.633983
23966 1 0.1719 0.636274 0.633968
23967 1 0.15762 0.965845 0.658337
23969 1 0.186162 0.296837 0.658319
23971 1 0.143368 0.804818 0.633983
23972 1 0.1719 0.136274 0.633968
23973 1 0.15762 0.465845 0.658337
23975 1 0.186162 0.796837 0.658319
24517 1 0.143324 0.295916 0.682703
24518 1 0.171874 0.626824 0.682682
24523 1 0.143324 0.795916 0.682703
24524 1 0.171874 0.126824 0.682682
23968 1 0.200435 0.967383 0.633953
23970 1 0.214704 0.6274 0.658306
23974 1 0.200435 0.467384 0.633953
23976 1 0.214704 0.1274 0.658306
23977 1 0.228973 0.298037 0.633942
23978 1 0.25751 0.628129 0.633938
23979 1 0.243245 0.957421 0.658301
23983 1 0.228973 0.798037 0.633942
23984 1 0.25751 0.128129 0.633938
23985 1 0.243245 0.457421 0.658301
24520 1 0.200425 0.957348 0.682667
24526 1 0.200425 0.457348 0.682667
24529 1 0.228971 0.287362 0.682661
24530 1 0.25751 0.616778 0.682665
24535 1 0.228971 0.787362 0.682661
24536 1 0.25751 0.116778 0.682665
23980 1 0.286045 0.957503 0.633941
23981 1 0.271782 0.286792 0.658305
23982 1 0.300314 0.615367 0.658319
23986 1 0.286045 0.457502 0.633941
23987 1 0.271782 0.786792 0.658305
23988 1 0.300314 0.115367 0.658319
23989 1 0.314577 0.285971 0.633956
23995 1 0.314577 0.785971 0.633956
24532 1 0.286044 0.945509 0.682679
24538 1 0.286044 0.445509 0.682679
24541 1 0.314572 0.273433 0.682704
24547 1 0.314572 0.773432 0.682704
23990 1 0.343104 0.613298 0.633987
23991 1 0.328842 0.942978 0.658347
23992 1 0.371625 0.939148 0.634041
23993 1 0.357363 0.269417 0.658394
23994 1 0.385879 0.594459 0.658464
23996 1 0.343104 0.113297 0.633987
23997 1 0.328842 0.442978 0.658347
23998 1 0.371625 0.439149 0.634041
23999 1 0.357363 0.769417 0.658394
24000 1 0.385879 0.0944589 0.658464
24542 1 0.343095 0.600398 0.682744
24544 1 0.371613 0.926281 0.682803
24548 1 0.343095 0.100398 0.682744