ITEM: TIMESTEP
83
ITEM: NUMBER OF ATOMS
2346
ITEM: BOX BOUNDS ss pp ss
-4.0826385614000003e+01 4.0826373535000002e+01
-4.1208122699999999e-01 4.5329187729999996e+00
-4.1501620197000001e+01 4.1333365355000005e+01
ITEM: ATOMS id type xs ys zs
17356 3 0.285883 0.0902286 0.0491324
17362 3 0.285883 0.590228 0.0491324
17365 3 0.314432 0.427725 0.0491324
17371 3 0.314432 0.927726 0.0491324
16815 3 0.328707 0.0978878 0.0247612
16817 3 0.357255 0.435473 0.0247612
16818 3 0.385804 0.773197 0.0247612
16821 3 0.328707 0.597887 0.0247612
16823 3 0.357255 0.935473 0.0247612
16824 3 0.385804 0.273198 0.0247612
17366 3 0.342981 0.765407 0.0491324
17368 3 0.37153 0.103257 0.0491324
17372 3 0.342981 0.265407 0.0491324
17374 3 0.37153 0.603257 0.0491324
16826 3 0.428628 0.780557 0.00038994
16827 3 0.414353 0.111039 0.0247612
16829 3 0.442902 0.448972 0.0247612
16832 3 0.428628 0.280557 0.00038994
16833 3 0.414353 0.611039 0.0247612
16835 3 0.442902 0.948973 0.0247612
17377 1 0.400204 0.441112 0.049195
17378 1 0.428768 0.780265 0.0494623
17383 1 0.400204 0.941112 0.049195
17384 1 0.428768 0.280265 0.0494623
16828 3 0.457177 0.118307 0.00038994
16830 3 0.471451 0.78697 0.0247612
16834 3 0.457177 0.618306 0.00038994
16836 3 0.471451 0.286971 0.0247612
17380 1 0.457301 0.117829 0.0494839
17386 1 0.457301 0.617829 0.0494839
16837 3 0.485726 0.456097 0.00038994
16839 3 0.5 0.125001 0.0247612
16843 3 0.485726 0.956098 0.00038994
16845 3 0.5 0.625 0.0247612
17389 1 0.485754 0.455652 0.0493579
17395 1 0.485754 0.955652 0.0493579
17897 3 0.185962 0.403808 0.122246
17903 3 0.185962 0.903809 0.122246
17355 3 0.24306 0.0824395 0.0735036
17361 3 0.24306 0.582439 0.0735036
17896 3 0.200236 0.0746674 0.0978748
17898 3 0.214511 0.740818 0.122246
17902 3 0.200236 0.574667 0.0978748
17904 3 0.214511 0.240818 0.122246
17905 3 0.228785 0.411735 0.0978748
17906 3 0.257334 0.749052 0.0978748
17907 1 0.243258 0.0785038 0.122468
17911 3 0.228785 0.911736 0.0978748
17912 3 0.257334 0.249053 0.0978748
17913 1 0.243258 0.578504 0.122468
17357 3 0.271609 0.419761 0.0735036
17358 3 0.300158 0.757307 0.0735036
17363 3 0.271609 0.919762 0.0735036
17364 3 0.300158 0.257307 0.0735036
17908 1 0.286017 0.0873097 0.0981141
17909 1 0.271815 0.41607 0.122562
17910 1 0.300301 0.753717 0.122503
17914 1 0.286017 0.58731 0.0981141
17915 1 0.271815 0.91607 0.122562
17916 1 0.300301 0.253717 0.122503
17917 1 0.314599 0.42492 0.0982261
17923 1 0.314599 0.92492 0.098226
17367 1 0.328789 0.0956118 0.0738051
17369 1 0.357391 0.433244 0.0738338
17370 1 0.385917 0.771157 0.0736633
17373 1 0.328789 0.595612 0.0738051
17375 1 0.357391 0.933244 0.0738338
17376 1 0.385917 0.271157 0.0736633
17918 1 0.343112 0.762717 0.0981383
17919 1 0.328844 0.0917748 0.122505
17920 1 0.371658 0.1009 0.0980711
17921 1 0.357379 0.429919 0.122465
17922 1 0.385899 0.768312 0.122442
17924 1 0.343112 0.262717 0.0981383
17925 1 0.328844 0.591775 0.122505
17926 1 0.371658 0.6009 0.0980711
17927 1 0.357379 0.929919 0.122465
17928 1 0.385899 0.268312 0.122442
17379 1 0.41447 0.109715 0.0737631
17381 1 0.443005 0.448192 0.0738038
17385 1 0.41447 0.609715 0.0737631
17387 1 0.443005 0.948192 0.0738038
17929 1 0.400165 0.439061 0.0980592
17930 1 0.428701 0.777723 0.0981276
17931 1 0.414417 0.106914 0.122458
17933 1 0.44295 0.445851 0.122492
17935 1 0.400165 0.939061 0.0980592
17936 1 0.428701 0.277723 0.0981276
17937 1 0.414417 0.606914 0.122458
17939 1 0.44295 0.945851 0.122492
17382 1 0.471518 0.786379 0.0737611
17388 1 0.471518 0.286379 0.0737611
17932 1 0.457238 0.116393 0.0981494
17934 1 0.471479 0.784837 0.122506
17938 1 0.457238 0.616393 0.0981494
17940 1 0.471479 0.284837 0.122506
17941 1 0.48575 0.454911 0.0981332
17947 1 0.48575 0.954911 0.0981332
17943 1 0.499998 0.123755 0.122508
17949 1 0.499998 0.623755 0.122508
18438 3 0.128864 0.725075 0.170988
18444 3 0.128864 0.225076 0.170988
18445 3 0.143139 0.39613 0.146617
18446 3 0.171687 0.732776 0.146617
18447 3 0.157413 0.0615865 0.170988
18449 1 0.186169 0.398756 0.17124
18451 3 0.143139 0.89613 0.146617
18452 3 0.171687 0.232776 0.146617
18453 3 0.157413 0.561586 0.170988
18455 1 0.186169 0.898756 0.17124
18448 1 0.200203 0.0685558 0.146693
18450 1 0.214652 0.735183 0.171191
18454 1 0.200203 0.568556 0.146693
18456 1 0.214652 0.235183 0.171191
18457 1 0.228939 0.406858 0.146888
18458 1 0.257464 0.744494 0.146842
18459 1 0.243172 0.0726424 0.171171
18463 1 0.228939 0.906858 0.146888
18464 1 0.257464 0.244494 0.146842
18465 1 0.243172 0.572642 0.171171
18460 1 0.286018 0.082314 0.146853
18461 1 0.271718 0.410324 0.171175
18462 1 0.300261 0.748331 0.171175
18466 1 0.286018 0.582314 0.146853
18467 1 0.271718 0.910324 0.171175
18468 1 0.300261 0.248331 0.171175
18469 1 0.314555 0.420212 0.146841
18475 1 0.314555 0.920212 0.146841
18470 1 0.343093 0.75852 0.146826
18471 1 0.3288 0.0866041 0.171169
18472 1 0.371623 0.0970209 0.146809
18473 1 0.357337 0.425236 0.171167
18474 1 0.385868 0.764191 0.171172
18476 1 0.343093 0.25852 0.146826
18477 1 0.3288 0.586604 0.171169
18478 1 0.371623 0.597021 0.146809
18479 1 0.357337 0.925236 0.171167
18480 1 0.385868 0.264191 0.171172
18481 1 0.400146 0.435789 0.146815
18482 1 0.428673 0.774879 0.146839
18483 1 0.414397 0.103493 0.171189
18485 1 0.442928 0.443136 0.171213
18487 1 0.400146 0.935789 0.146815
18488 1 0.428673 0.274879 0.146839
18489 1 0.414397 0.603493 0.171189
18491 1 0.442928 0.943136 0.171213
18484 1 0.457204 0.114226 0.146863
18486 1 0.471461 0.783017 0.171233
18490 1 0.457204 0.614226 0.146863
18492 1 0.471461 0.283017 0.171233
18493 1 0.485733 0.453663 0.146876
18499 1 0.485733 0.953663 0.146876
18501 1 0.499993 0.623021 0.171243
18495 1 0.499993 0.123021 0.171243
19537 3 0.0574918 0.375691 0.244102
19543 3 0.0574918 0.875692 0.244102
18988 3 0.11459 0.053915 0.19536
18989 3 0.100315 0.382674 0.219731
18990 1 0.129013 0.717306 0.219777
18994 3 0.11459 0.553914 0.19536
18995 3 0.100315 0.882674 0.219731
18996 1 0.129013 0.217306 0.219777
19538 3 0.0860407 0.711382 0.244102
19540 1 0.114981 0.0462445 0.244217
19544 3 0.0860407 0.211383 0.244102
19546 1 0.114981 0.546245 0.244217
18997 3 0.143139 0.390261 0.19536
18998 1 0.171928 0.726756 0.195623
18999 1 0.157647 0.0544551 0.219876
19001 1 0.18614 0.391434 0.219892
19003 3 0.143139 0.890261 0.19536
19004 1 0.171928 0.226756 0.195623
19005 1 0.157647 0.554455 0.219876
19007 1 0.18614 0.891434 0.219892
19549 1 0.143461 0.382416 0.244259
19550 1 0.171898 0.718992 0.244224
19555 1 0.143461 0.882416 0.244259
19556 1 0.171898 0.218992 0.244224
19000 1 0.200413 0.0636175 0.195559
19002 1 0.21466 0.728431 0.219876
19006 1 0.200413 0.563617 0.195559
19008 1 0.21466 0.228431 0.219876
19009 1 0.228918 0.400591 0.195516
19010 1 0.257438 0.738109 0.195504
19011 1 0.243167 0.0656973 0.219849
19015 1 0.228918 0.900591 0.195516
19016 1 0.257438 0.238109 0.195504
19017 1 0.243167 0.565697 0.219849
19552 1 0.200396 0.0559796 0.244222
19558 1 0.200396 0.55598 0.244222
19561 1 0.228898 0.393119 0.244202
19562 1 0.257409 0.730612 0.244187
19567 1 0.228898 0.893119 0.244202
19568 1 0.257409 0.230612 0.244187
19012 1 0.285969 0.0759956 0.195502
19013 1 0.271687 0.403398 0.21984
19014 1 0.300215 0.741575 0.219839
19018 1 0.285969 0.575996 0.195502
19019 1 0.271687 0.903398 0.21984
19020 1 0.300215 0.241575 0.219839
19021 1 0.314507 0.414277 0.195506
19027 1 0.314507 0.914277 0.195506
19564 1 0.285926 0.0685906 0.244178
19570 1 0.285926 0.56859 0.244178
19573 1 0.314452 0.407101 0.244178
19579 1 0.314452 0.907101 0.244178
19022 1 0.343044 0.752963 0.195509
19023 1 0.328748 0.0802293 0.219844
19024 1 0.37158 0.0920569 0.195517
19025 1 0.357285 0.419377 0.219854
19026 1 0.385823 0.759035 0.219872
19028 1 0.343044 0.252963 0.195509
19029 1 0.328748 0.580229 0.219844
19030 1 0.37158 0.592057 0.195517
19031 1 0.357285 0.919377 0.219854
19032 1 0.385823 0.259035 0.219872
19574 1 0.342985 0.746181 0.244186
19576 1 0.371524 0.0858749 0.244202
19580 1 0.342985 0.246181 0.244186
19582 1 0.371524 0.585875 0.244202
19033 1 0.400114 0.431569 0.195534
19034 1 0.428648 0.771492 0.195559
19035 1 0.414362 0.0992065 0.219897
19037 1 0.442903 0.439855 0.219926
19039 1 0.400114 0.931569 0.195534
19040 1 0.428648 0.271492 0.195559
19041 1 0.414362 0.599207 0.219897
19043 1 0.442903 0.939855 0.219926
19585 1 0.400066 0.426198 0.244228
19586 1 0.428612 0.767152 0.24426
19591 1 0.400066 0.926197 0.244228
19592 1 0.428612 0.267152 0.24426
19603 1 0.485707 0.950605 0.244314
19051 1 0.485721 0.952306 0.1956
19597 1 0.485707 0.450605 0.244314
19045 1 0.485721 0.452306 0.1956
19594 1 0.457159 0.608669 0.244291
19588 1 0.457159 0.108669 0.244291
19036 1 0.457185 0.111775 0.195583
19038 1 0.471444 0.780892 0.219951
19042 1 0.457185 0.611775 0.195583
19044 1 0.471444 0.280892 0.219951
19053 1 0.499985 0.622177 0.219964
19047 1 0.499985 0.122177 0.219964
20089 3 0.0574918 0.368767 0.292845
20095 3 0.0574918 0.868768 0.292845
19539 3 0.0717663 0.0400698 0.268473
19541 1 0.100848 0.375646 0.268782
19542 1 0.129335 0.711125 0.26874
19545 3 0.0717663 0.540069 0.268473
19547 1 0.100848 0.875646 0.268782
19548 1 0.129335 0.211125 0.26874
20090 1 0.0863306 0.705061 0.293129
20092 1 0.115045 0.0399903 0.293133
20096 1 0.0863306 0.205061 0.293129
20098 1 0.115045 0.53999 0.293133
19551 1 0.157709 0.0469866 0.268619
19553 1 0.186152 0.383479 0.268583
19557 1 0.157709 0.546987 0.268619
19559 1 0.186152 0.883479 0.268583
20101 1 0.143468 0.375461 0.293054
20102 1 0.171904 0.711326 0.292977
20107 1 0.143468 0.875461 0.293054
20108 1 0.171904 0.211326 0.292977
19554 1 0.214633 0.720406 0.268561
19560 1 0.214633 0.220406 0.268561
19563 1 0.243132 0.0576818 0.268541
19569 1 0.243132 0.557682 0.268541
20104 1 0.20037 0.0477704 0.292934
20110 1 0.20037 0.54777 0.292934
20113 1 0.228856 0.384689 0.292904
20114 1 0.257354 0.722055 0.292878
20119 1 0.228856 0.884689 0.292904
20120 1 0.257354 0.222055 0.292878
19565 1 0.271639 0.395396 0.268524
19566 1 0.300156 0.733645 0.268515
19571 1 0.271639 0.895396 0.268524
19572 1 0.300156 0.233645 0.268515
20131 1 0.314379 0.898483 0.292851
20116 1 0.285861 0.0599483 0.29286
20122 1 0.285861 0.559948 0.29286
20125 1 0.314379 0.398483 0.292851
19575 1 0.328683 0.0725204 0.268516
19577 1 0.357218 0.412093 0.268528
19578 1 0.385761 0.752424 0.26855
20134 1 0.371446 0.577916 0.292868
19581 1 0.328683 0.572521 0.268516
19583 1 0.357218 0.912093 0.268528
19584 1 0.385761 0.252424 0.26855
20132 1 0.342907 0.237771 0.292854
20128 1 0.371446 0.0779161 0.292868
20126 1 0.342907 0.737771 0.292854
20144 1 0.428554 0.261215 0.292936
20143 1 0.399995 0.919048 0.292897
20138 1 0.428554 0.761215 0.292936
20137 1 0.399995 0.419048 0.292897
19587 1 0.41431 0.0935672 0.268583
19589 1 0.442864 0.435491 0.26862
19593 1 0.41431 0.593567 0.268583
19595 1 0.442864 0.935491 0.26862
20146 1 0.457119 0.604351 0.292977
20140 1 0.457119 0.104351 0.292977
19590 1 0.47142 0.778072 0.268653
19596 1 0.47142 0.278072 0.268653
20149 1 0.485686 0.448254 0.29301
20155 1 0.485686 0.948254 0.29301
19599 1 0.499977 0.121088 0.268672
19605 1 0.499977 0.621088 0.268672
20647 3 0.0574918 0.861219 0.341587
20641 3 0.0574918 0.361218 0.341587
20640 3 0.0432173 0.189857 0.365958
20639 3 0.0146684 0.855229 0.365958
20638 3 0.0289429 0.526319 0.341587
20634 3 0.0432173 0.689857 0.365958
20633 3 0.0146684 0.355229 0.365958
20632 3 0.0289429 0.0263198 0.341587
20082 3 0.0432173 0.697508 0.317216
20088 3 0.0432173 0.197508 0.317216
20652 1 0.128996 0.194981 0.366061
20651 1 0.100464 0.859848 0.366051
20650 1 0.11476 0.53205 0.341735
20649 1 0.0719582 0.524717 0.366048
20648 1 0.0862469 0.196791 0.34174
20646 1 0.128996 0.694981 0.366061
20645 1 0.100464 0.359848 0.366051
20644 1 0.11476 0.0320495 0.341735
20643 1 0.0719582 0.0247169 0.366048
20642 1 0.0862469 0.696791 0.34174
20091 1 0.0718747 0.0340627 0.317326
20093 1 0.100594 0.368736 0.317434
20094 1 0.129114 0.703964 0.317426
20097 1 0.0718747 0.534063 0.317326
20099 1 0.100594 0.868736 0.317434
20100 1 0.129114 0.203964 0.317426
20663 1 0.186021 0.865927 0.366021
20661 1 0.157514 0.530328 0.366049
20660 1 0.171801 0.202922 0.341693
20659 1 0.143293 0.867358 0.341729
20657 1 0.186021 0.365927 0.366021
20655 1 0.157514 0.0303283 0.366049
20654 1 0.171801 0.702922 0.341693
20653 1 0.143293 0.367358 0.341729
20103 1 0.157611 0.0394545 0.317372
20105 1 0.186092 0.375338 0.317317
20109 1 0.157611 0.539455 0.317372
20111 1 0.186092 0.875338 0.317317
20673 1 0.24301 0.538244 0.365951
20672 1 0.257285 0.212185 0.34158
20671 1 0.228791 0.875267 0.341613
20667 1 0.24301 0.0382437 0.365951
20666 1 0.257285 0.712185 0.34158
20665 1 0.228791 0.375267 0.341613
20664 1 0.214517 0.201867 0.365986
20662 1 0.200299 0.538861 0.341651
20658 1 0.214517 0.701867 0.365986
20656 1 0.200299 0.0388614 0.341651
20106 1 0.214579 0.711747 0.317276
20112 1 0.214579 0.211747 0.317276
20115 1 0.243071 0.0486608 0.317242
20121 1 0.243071 0.548661 0.317242
20683 1 0.31429 0.887969 0.34153
20677 1 0.31429 0.387969 0.34153
20676 1 0.299997 0.212753 0.365888
20675 1 0.271502 0.875166 0.365918
20674 1 0.285783 0.54971 0.341552
20670 1 0.299997 0.712753 0.365888
20669 1 0.271502 0.375166 0.365918
20668 1 0.285783 0.0497104 0.341552
20117 1 0.27157 0.386101 0.317216
20118 1 0.300078 0.724178 0.317196
20123 1 0.27157 0.886101 0.317216
20124 1 0.300078 0.224179 0.317196
20688 1 0.385546 0.23161 0.365847
20687 1 0.357014 0.890692 0.365848
20686 1 0.371339 0.567437 0.34152
20685 1 0.328499 0.55118 0.365864
20684 1 0.342807 0.227133 0.341519
20682 1 0.385546 0.73161 0.365847
20681 1 0.357014 0.390692 0.365848
20680 1 0.371339 0.0674373 0.34152
20679 1 0.328499 0.0511791 0.365864
20678 1 0.342807 0.727133 0.341519
20136 1 0.38567 0.24363 0.317206
20135 1 0.357126 0.902772 0.317189
20133 1 0.328596 0.56302 0.317186
20130 1 0.38567 0.74363 0.317206
20129 1 0.357126 0.402772 0.317189
20127 1 0.328596 0.0630196 0.317186
20699 1 0.442691 0.91946 0.36591
20697 1 0.414104 0.574374 0.365867
20696 1 0.42846 0.252552 0.341579
20695 1 0.39989 0.909155 0.34154
20693 1 0.442691 0.419459 0.36591
20691 1 0.414104 0.0743746 0.365867
20690 1 0.42846 0.752552 0.341579
20689 1 0.39989 0.409156 0.34154
20147 1 0.4428 0.92923 0.317285
20145 1 0.414229 0.585761 0.31724
20141 1 0.4428 0.42923 0.317285
20139 1 0.414229 0.0857601 0.31724
20700 1 0.471305 0.267134 0.365967
20698 1 0.457049 0.597757 0.34163
20694 1 0.471305 0.767134 0.365967
20692 1 0.457049 0.097757 0.34163
20148 1 0.471379 0.273931 0.31733
20142 1 0.471379 0.773931 0.31733
20707 1 0.485649 0.944576 0.341676
20701 1 0.485649 0.444576 0.341676
20703 1 0.499935 0.116945 0.366009
20709 1 0.499935 0.616944 0.366009
20151 1 0.499962 0.119523 0.317359
20157 1 0.499962 0.619523 0.317359
21751 1 0.0578634 0.843893 0.439126
21745 1 0.0578634 0.343893 0.439126
21742 3 0.0289429 0.510554 0.439072
21740 3 0.000393975 0.176624 0.439072
21736 3 0.0289429 0.0105541 0.439072
21734 3 0.000393975 0.676624 0.439072
21199 1 0.057826 0.852862 0.390419
21193 1 0.057826 0.352862 0.390419
21192 1 0.0435066 0.181218 0.414792
21191 3 0.0146684 0.847538 0.414701
21190 3 0.0289429 0.518622 0.390329
21188 3 0.000393975 0.18426 0.390329
21186 1 0.0435066 0.681218 0.414792
21185 3 0.0146684 0.347538 0.414701
21184 3 0.0289429 0.0186224 0.390329
21182 3 0.000393975 0.68426 0.390329
21754 1 0.114783 0.512472 0.439113
21752 1 0.0863021 0.178057 0.43912
21748 1 0.114783 0.012472 0.439113
21746 1 0.0863021 0.678057 0.43912
21204 1 0.129009 0.184926 0.41475
21203 1 0.100521 0.85017 0.414752
21202 1 0.114745 0.522487 0.390399
21201 1 0.0720288 0.515624 0.414761
21200 1 0.0862416 0.187527 0.390388
21198 1 0.129009 0.684926 0.41475
21197 1 0.100521 0.35017 0.414752
21196 1 0.114745 0.022487 0.390399
21195 1 0.0720288 0.0156241 0.414761
21194 1 0.0862416 0.687527 0.390388
21764 1 0.17177 0.181818 0.439094
21763 1 0.143275 0.847075 0.439107
21758 1 0.17177 0.681818 0.439094
21757 1 0.143275 0.347075 0.439107
21215 1 0.186007 0.855065 0.414726
21213 1 0.157509 0.519904 0.414743
21212 1 0.171756 0.192911 0.390383
21211 1 0.14325 0.857604 0.390397
21209 1 0.186007 0.355065 0.414726
21207 1 0.157509 0.0199043 0.414743
21206 1 0.171756 0.692911 0.390383
21205 1 0.14325 0.357604 0.390397
21776 1 0.25724 0.187217 0.439022
21775 1 0.228754 0.851814 0.439051
21770 1 0.25724 0.687217 0.439022
21769 1 0.228754 0.351814 0.439051
21766 1 0.200264 0.516716 0.439075
21760 1 0.200264 0.0167166 0.439075
21225 1 0.242987 0.526135 0.414671
21224 1 0.257236 0.200616 0.390292
21223 1 0.228747 0.864313 0.390326
21219 1 0.242987 0.0261346 0.414671
21218 1 0.257236 0.700616 0.390292
21217 1 0.228747 0.364313 0.390326
21216 1 0.214499 0.190441 0.414701
21214 1 0.200255 0.528454 0.390357
21210 1 0.214499 0.690441 0.414701
21208 1 0.200255 0.0284539 0.390357
21787 1 0.314196 0.859391 0.438957
21781 1 0.314196 0.359391 0.438957
21778 1 0.28572 0.523022 0.43899
21772 1 0.28572 0.0230217 0.43899
21235 1 0.314213 0.875075 0.390227
21229 1 0.314213 0.375076 0.390227
21228 1 0.299953 0.198975 0.414604
21227 1 0.271471 0.862267 0.414638
21226 1 0.285724 0.537485 0.390259
21222 1 0.299953 0.698975 0.414604
21221 1 0.271471 0.362266 0.414638
21220 1 0.285724 0.0374853 0.390259
21790 1 0.371141 0.534901 0.438882
21788 1 0.342669 0.196565 0.43892
21784 1 0.371141 0.0348998 0.438882
21782 1 0.342669 0.696565 0.43892
21240 1 0.385417 0.215061 0.414506
21239 1 0.356921 0.875005 0.414536
21238 1 0.371217 0.55345 0.390177
21237 1 0.328435 0.536454 0.41457
21236 1 0.342709 0.213621 0.390198
21234 1 0.385417 0.715062 0.414506
21233 1 0.356921 0.375004 0.414536
21232 1 0.371217 0.0534508 0.390177
21231 1 0.328435 0.0364543 0.41457
21230 1 0.342709 0.71362 0.390198
21800 1 0.428114 0.217757 0.438798
21799 1 0.399618 0.874968 0.43884
21794 1 0.428114 0.717755 0.438798
21793 1 0.399618 0.374968 0.43884
21251 1 0.442501 0.903038 0.414482
21249 1 0.413937 0.55732 0.414485
21248 1 0.42831 0.2391 0.390183
21247 1 0.399747 0.895037 0.390169
21245 1 0.442501 0.40304 0.414482
21243 1 0.413937 0.0573198 0.414485
21242 1 0.42831 0.739101 0.390183
21241 1 0.399747 0.395037 0.390169
21802 1 0.456662 0.565622 0.438753
21796 1 0.456662 0.0656213 0.438753
21252 1 0.471146 0.254294 0.414525
21250 1 0.45692 0.586607 0.390227
21246 1 0.471146 0.754294 0.414525
21244 1 0.45692 0.0866062 0.390227
21811 1 0.485376 0.923375 0.438792
21805 1 0.485376 0.423373 0.438792
21261 1 0.499877 0.611888 0.414595
21259 1 0.485576 0.938047 0.390291
21253 1 0.485576 0.438046 0.390291
21255 1 0.499877 0.111891 0.414595
21744 1 0.0434858 0.17247 0.463456
21743 3 0.0146684 0.839571 0.463443
21738 1 0.0434858 0.67247 0.463456
21737 3 0.0146684 0.33957 0.463443
22286 3 0.000393975 0.668799 0.487814
22288 3 0.0289429 0.00226232 0.487814
22292 3 0.000393975 0.1688 0.487814
22294 3 0.0289429 0.502262 0.487814
22297 1 0.0578598 0.334886 0.487826
22303 1 0.0578598 0.834886 0.487826
21756 1 0.129042 0.174541 0.463473
21755 1 0.10055 0.840389 0.463477
21753 1 0.0720441 0.506399 0.463478
21750 1 0.129042 0.674541 0.463473
21749 1 0.10055 0.34039 0.463477
21747 1 0.0720441 0.0063986 0.463478
22298 1 0.0863157 0.668516 0.487836
22300 1 0.11481 0.00232135 0.487837
22304 1 0.0863157 0.168516 0.487836
22306 1 0.11481 0.502321 0.487837
21767 1 0.186036 0.84325 0.463448
21765 1 0.15754 0.508841 0.463463
21761 1 0.186036 0.34325 0.463448
21759 1 0.15754 0.00884146 0.463463
22309 1 0.143309 0.33622 0.487831
22310 1 0.17181 0.67015 0.48782
22315 1 0.143309 0.83622 0.487831
22316 1 0.17181 0.17015 0.48782
21777 1 0.243022 0.512463 0.463405
21771 1 0.243022 0.0124632 0.463405
21768 1 0.214531 0.177772 0.463429
21762 1 0.214531 0.677772 0.463429
22312 1 0.200311 0.00412398 0.487804
22318 1 0.200311 0.504124 0.487804
22321 1 0.22881 0.338147 0.487785
22322 1 0.257305 0.672254 0.487763
22327 1 0.22881 0.838146 0.487785
22328 1 0.257305 0.172255 0.487763
21780 1 0.299988 0.182647 0.46335
21779 1 0.271508 0.847391 0.463378
21774 1 0.299988 0.682647 0.46335
21773 1 0.271508 0.347391 0.463378
22324 1 0.285796 0.00647049 0.48774
22330 1 0.285796 0.50647 0.48774
22333 1 0.31428 0.340882 0.487716
22339 1 0.31428 0.840882 0.487716
21792 1 0.385383 0.192619 0.463242
21791 1 0.356927 0.854935 0.463283
21789 1 0.328461 0.518416 0.463319
21786 1 0.385383 0.692619 0.463242
21785 1 0.356927 0.354935 0.463283
21783 1 0.328461 0.0184154 0.463319
22334 1 0.342757 0.675615 0.487691
22336 1 0.371221 0.0108512 0.487663
22340 1 0.342757 0.175615 0.487691
22342 1 0.371221 0.510851 0.487663
21803 1 0.442272 0.874976 0.463117
21801 1 0.413829 0.532186 0.46319
21797 1 0.442272 0.374976 0.463117
21795 1 0.413829 0.0321879 0.46319
22345 1 0.399662 0.346914 0.48763
22346 1 0.428063 0.684344 0.487585
22351 1 0.399662 0.846915 0.48763
22352 1 0.428063 0.184343 0.487585
22363 1 0.484874 0.875011 0.487364
22348 1 0.456424 0.024412 0.48752
21798 1 0.470785 0.72556 0.462998
22357 1 0.484874 0.37501 0.487364
21813 1 0.499676 0.596229 0.463074
21804 1 0.470785 0.225558 0.462998
22354 1 0.456424 0.524414 0.48752
21807 1 0.499676 0.0962304 0.463074
22289 3 0.0146684 0.331475 0.512186
22290 1 0.0434933 0.663817 0.512182
22295 3 0.0146684 0.831476 0.512186
22296 1 0.0434933 0.163818 0.512182
22838 3 0.000393975 0.660934 0.536557
22840 3 0.0289429 0.993921 0.536557
22841 3 0.0146684 0.323419 0.560928
22842 1 0.0435233 0.655462 0.560863
22844 3 0.000393975 0.160934 0.536557
22846 3 0.0289429 0.493921 0.536557
22847 3 0.0146684 0.823419 0.560928
22848 1 0.0435233 0.155462 0.560863
22849 1 0.0578806 0.326086 0.536535
22855 1 0.0578806 0.826086 0.536535
22299 1 0.0720569 0.997171 0.512188
22301 1 0.10057 0.330528 0.512198
22302 1 0.129072 0.663987 0.512198
22305 1 0.0720569 0.497171 0.512188
22307 1 0.10057 0.830528 0.512198
22308 1 0.129072 0.163987 0.512198
22850 1 0.0863308 0.65903 0.536559
22851 1 0.0720548 0.988153 0.560929
22852 1 0.11483 0.992155 0.536563
22853 1 0.100575 0.320849 0.560927
22854 1 0.12909 0.653584 0.56092
22856 1 0.0863308 0.15903 0.536559
22857 1 0.0720548 0.488153 0.560929
22858 1 0.11483 0.492155 0.536563
22859 1 0.100575 0.820849 0.560927
22860 1 0.12909 0.153584 0.56092
22311 1 0.15758 0.997489 0.512189
22313 1 0.186087 0.330954 0.512176
22317 1 0.15758 0.497489 0.512189
22319 1 0.186087 0.830954 0.512176
22861 1 0.143341 0.325292 0.536556
22862 1 0.171856 0.658319 0.536544
22863 1 0.157615 0.986239 0.56091
22865 1 0.186138 0.318733 0.560898
22867 1 0.143341 0.825292 0.536556
22868 1 0.171856 0.158319 0.536545
22869 1 0.157615 0.486238 0.56091
22871 1 0.186138 0.818733 0.560898
22314 1 0.214595 0.664387 0.51216
22320 1 0.214595 0.164387 0.51216
22323 1 0.2431 0.997765 0.512142
22329 1 0.2431 0.497765 0.512142
22864 1 0.200372 0.991243 0.536531
22866 1 0.214662 0.651025 0.560885
22870 1 0.200372 0.491243 0.536531
22872 1 0.214662 0.151025 0.560885
22873 1 0.228888 0.324018 0.536516
22874 1 0.257403 0.656591 0.536501
22875 1 0.243186 0.983031 0.560872
22879 1 0.228888 0.824018 0.536516
22880 1 0.257403 0.15659 0.536501
22881 1 0.243186 0.483031 0.560872
22325 1 0.271604 0.331077 0.512125
22326 1 0.300104 0.664305 0.512107
22331 1 0.271604 0.831077 0.512125
22332 1 0.300104 0.164305 0.512107
22876 1 0.285917 0.988891 0.536489
22877 1 0.271711 0.314652 0.560862
22878 1 0.300235 0.645751 0.560856
22882 1 0.285917 0.488892 0.536489
22883 1 0.271711 0.814652 0.560862
22884 1 0.300235 0.145752 0.560856
22885 1 0.314429 0.320829 0.536478
22891 1 0.314429 0.820829 0.536478
22335 1 0.328599 0.997465 0.51209
22337 1 0.357088 0.330519 0.512076
22338 1 0.385565 0.663359 0.512067
22341 1 0.328599 0.497465 0.51209
22343 1 0.357088 0.830518 0.512076
22344 1 0.385565 0.163359 0.512067
22886 1 0.342939 0.652264 0.536473
22887 1 0.328758 0.976138 0.560857
22888 1 0.371446 0.982854 0.536478
22889 1 0.357279 0.305456 0.560869
22890 1 0.385798 0.633069 0.5609
22892 1 0.342939 0.152264 0.536473
22893 1 0.328758 0.476137 0.560857
22894 1 0.371446 0.482853 0.536478
22895 1 0.357279 0.805457 0.560869
22896 1 0.385798 0.133067 0.5609
22347 1 0.414023 0.99569 0.512064
22349 1 0.442456 0.326611 0.51208
22353 1 0.414023 0.49569 0.512064
22355 1 0.442456 0.82661 0.51208
22897 1 0.399949 0.311948 0.536501
22898 1 0.42845 0.638124 0.536559
22899 1 0.414313 0.95786 0.560969
22901 1 0.442826 0.277786 0.561103
22903 1 0.399949 0.811948 0.536501
22904 1 0.42845 0.138124 0.536559
22905 1 0.414313 0.457861 0.560969
22907 1 0.442826 0.777785 0.561103
22350 1 0.470937 0.653779 0.512147
22356 1 0.470937 0.153779 0.512147
22900 1 0.456972 0.958037 0.536688
22902 1 0.471334 0.589466 0.561384
22906 1 0.456972 0.458037 0.536688
22908 1 0.471334 0.0894664 0.561384
22359 1 0.499609 0.958207 0.51242
22909 1 0.485513 0.262459 0.537035
22911 1 0.499894 0.891841 0.561737
22915 1 0.485513 0.76246 0.537035
22365 1 0.499609 0.458207 0.51242
22917 1 0.499894 0.39184 0.561737
23390 3 0.000393975 0.653178 0.585299
23392 3 0.0289429 0.985712 0.585299
23393 3 0.0146684 0.315561 0.609671
23394 1 0.043287 0.64839 0.609727
23396 3 0.000393975 0.153179 0.585299
23398 3 0.0289429 0.485711 0.585299
23399 3 0.0146684 0.815562 0.609671
23400 1 0.043287 0.14839 0.609727
23401 1 0.0578284 0.317739 0.585299
23407 1 0.0578284 0.817739 0.585299
23402 1 0.0863015 0.649981 0.585295
23403 1 0.072053 0.979624 0.609651
23404 1 0.114834 0.982361 0.58528
23405 1 0.100582 0.311594 0.609638
23406 1 0.129106 0.643598 0.609634
23408 1 0.0863015 0.149981 0.585295
23409 1 0.072053 0.479624 0.609651
23410 1 0.114834 0.482361 0.58528
23411 1 0.100582 0.811594 0.609638
23412 1 0.129106 0.143598 0.609634
23413 1 0.143363 0.314688 0.585272
23414 1 0.171892 0.646839 0.585262
23415 1 0.157636 0.9755 0.609625
23417 1 0.186169 0.307153 0.609614
23419 1 0.143363 0.814688 0.585272
23420 1 0.171892 0.146839 0.585262
23421 1 0.157636 0.4755 0.609625
23423 1 0.186169 0.807152 0.609614
23416 1 0.200422 0.978759 0.58525
23418 1 0.214704 0.638468 0.609603
23422 1 0.200422 0.478759 0.585251
23424 1 0.214704 0.138468 0.609603
23425 1 0.228953 0.310353 0.585239
23426 1 0.257485 0.641509 0.58523
23427 1 0.243241 0.969328 0.609594
23431 1 0.228953 0.810353 0.585239
23432 1 0.257485 0.14151 0.58523
23433 1 0.243241 0.469328 0.609594
23428 1 0.286016 0.972083 0.585226
23429 1 0.271776 0.299598 0.609591
23430 1 0.30031 0.629095 0.609597
23434 1 0.286016 0.472082 0.585226
23435 1 0.271776 0.799599 0.609591
23436 1 0.30031 0.129094 0.609597
23437 1 0.314546 0.301871 0.58523
23443 1 0.314546 0.801872 0.58523
23438 1 0.343074 0.630571 0.585246
23439 1 0.328841 0.95757 0.609614
23440 1 0.371598 0.957685 0.585281
23441 1 0.357367 0.284673 0.609649
23442 1 0.385886 0.609912 0.609711
23444 1 0.343074 0.13057 0.585246
23445 1 0.328841 0.457571 0.609614
23446 1 0.371598 0.457687 0.585281
23447 1 0.357367 0.784671 0.609649
23448 1 0.385886 0.109913 0.609711
23449 1 0.400116 0.282459 0.585348
23450 1 0.428627 0.603757 0.585465
23451 1 0.414396 0.932671 0.609811
23453 1 0.442901 0.25233 0.609962
23455 1 0.400116 0.782457 0.585347
23456 1 0.428628 0.103759 0.585465
23457 1 0.414396 0.432669 0.609811
23459 1 0.442901 0.752331 0.609962
23452 1 0.457132 0.920203 0.585667
23454 1 0.471418 0.568951 0.610144
23458 1 0.457132 0.420201 0.585667
23460 1 0.471418 0.0689509 0.610144
23461 1 0.485657 0.231724 0.585918
23467 1 0.485657 0.731726 0.585918
23469 1 0.499972 0.383854 0.610268
23463 1 0.499972 0.883855 0.610268
23944 3 0.0289429 0.977797 0.634042
23945 3 0.0146684 0.308039 0.658413
23946 3 0.0432173 0.639906 0.658413
23950 3 0.0289429 0.477797 0.634042
23951 3 0.0146684 0.80804 0.658413
23952 3 0.0432173 0.139906 0.658413
23953 1 0.0578411 0.308901 0.633991
23959 1 0.0578411 0.808901 0.633991
24496 3 0.0289429 0.970308 0.682784
24502 3 0.0289429 0.470308 0.682784
24505 3 0.0574918 0.301913 0.682784
24511 3 0.0574918 0.801914 0.682784
23954 1 0.0863501 0.641074 0.633999
23955 1 0.0721339 0.971246 0.658351
23956 1 0.114856 0.972948 0.633999
23957 1 0.100569 0.302805 0.658375
23958 1 0.129091 0.634348 0.65836
23960 1 0.0863501 0.141074 0.633999
23961 1 0.0721339 0.471246 0.658351
23962 1 0.114856 0.472948 0.633999
23963 1 0.100569 0.802805 0.658375
23964 1 0.129091 0.134348 0.65836
24506 1 0.0862532 0.633379 0.682719
24508 1 0.114772 0.964602 0.682731
24512 1 0.0862532 0.133379 0.682719
24514 1 0.114772 0.464602 0.682731
23965 1 0.14337 0.304662 0.633991
23966 1 0.171904 0.636146 0.633977
23967 1 0.157622 0.965689 0.658343
23969 1 0.186166 0.296711 0.658326
23971 1 0.14337 0.804662 0.633991
23972 1 0.171904 0.136146 0.633977
23973 1 0.157622 0.465689 0.658343
23975 1 0.186166 0.796711 0.658326
24517 1 0.143324 0.295742 0.682707
24518 1 0.171876 0.62667 0.682685
24523 1 0.143324 0.795742 0.682707
24524 1 0.171876 0.12667 0.682685
23968 1 0.200442 0.967284 0.633965
23970 1 0.21471 0.627304 0.658315
23974 1 0.200442 0.467284 0.633965
23976 1 0.21471 0.127304 0.658315
23977 1 0.228982 0.297967 0.633956
23978 1 0.257521 0.628082 0.633953
23979 1 0.243253 0.957351 0.658311
23983 1 0.228982 0.797967 0.633956
23984 1 0.257521 0.128081 0.633953
23985 1 0.243253 0.457351 0.658311
24520 1 0.200429 0.957227 0.68267
24526 1 0.200429 0.457227 0.68267
24529 1 0.228977 0.287273 0.682666
24530 1 0.257519 0.616721 0.682672
24535 1 0.228977 0.787272 0.682666
24536 1 0.257519 0.116721 0.682672
23980 1 0.286057 0.957479 0.633959
23981 1 0.271792 0.286751 0.658317
23982 1 0.300325 0.615344 0.658335
23986 1 0.286057 0.45748 0.633959
23987 1 0.271792 0.78675 0.658317
23988 1 0.300325 0.115345 0.658335
23989 1 0.314589 0.285956 0.633977
23995 1 0.314589 0.785955 0.633977
24532 1 0.286054 0.945472 0.68269
24538 1 0.286054 0.445472 0.68269
24541 1 0.314583 0.273399 0.68272
24547 1 0.314583 0.773399 0.68272
23990 1 0.343116 0.613265 0.634011
23991 1 0.328852 0.942954 0.658367
23992 1 0.371635 0.939095 0.634067
23993 1 0.357373 0.269373 0.658417
23994 1 0.385887 0.594402 0.658489
23996 1 0.343116 0.113266 0.634011
23997 1 0.328852 0.442953 0.658367
23998 1 0.371635 0.439093 0.634067
23999 1 0.357373 0.769374 0.658417
24000 1 0.385887 0.0944011 0.658489
24542 1 0.343105 0.600358 0.682765