ITEM: TIMESTEP
0
ITEM: NUMBER OF ATOMS
2350
ITEM: BOX BOUNDS ss pp ss
-4.0972079223999998e+01 4.1846228795000002e+01
-4.1208122699999999e-01 4.5329187729999996e+00
-4.0071644046000003e+01 4.0744551645000001e+01
ITEM: ATOMS id type xs ys zs
17355 3 0.253713 0.75 0.0503597
17361 3 0.253713 0.25 0.0503597
17356 3 0.295933 0.75 0.0253797
17357 3 0.28186 0.0833329 0.0503597
17358 3 0.310007 0.416667 0.0503597
17362 3 0.295933 0.25 0.0253797
17363 3 0.28186 0.583333 0.0503597
17364 3 0.310007 0.916667 0.0503597
16817 3 0.366301 0.0833329 0.00039968
16823 3 0.366301 0.583333 0.00039968
17365 3 0.32408 0.0833329 0.0253797
17366 3 0.352228 0.416667 0.0253797
17367 1 0.338154 0.75 0.0503597
17368 3 0.380375 0.75 0.0253797
17369 1 0.366301 0.0833329 0.0503597
17371 3 0.32408 0.583333 0.0253797
17372 3 0.352228 0.916667 0.0253797
17373 1 0.338154 0.25 0.0503597
17374 3 0.380375 0.25 0.0253797
17375 1 0.366301 0.583333 0.0503597
16818 3 0.394448 0.416667 0.00039968
16824 3 0.394448 0.916667 0.00039968
16827 3 0.422595 0.75 0.00039968
16833 3 0.422595 0.25 0.00039968
17370 1 0.394448 0.416667 0.0503597
17376 1 0.394448 0.916667 0.0503597
17377 3 0.408522 0.0833329 0.0253797
17378 1 0.436669 0.416667 0.0253797
17379 1 0.422595 0.75 0.0503597
17383 3 0.408522 0.583333 0.0253797
17384 1 0.436669 0.916667 0.0253797
17385 1 0.422595 0.25 0.0503597
16829 3 0.450743 0.0833329 0.00039968
16830 3 0.47889 0.416667 0.00039968
16835 3 0.450743 0.583333 0.00039968
16836 3 0.47889 0.916667 0.00039968
17380 1 0.464816 0.75 0.0253797
17381 1 0.450743 0.0833329 0.0503597
17382 1 0.47889 0.416667 0.0503597
17386 1 0.464816 0.25 0.0253797
17387 1 0.450743 0.583333 0.0503597
17388 1 0.47889 0.916667 0.0503597
17389 1 0.492963 0.0833329 0.0253797
17395 1 0.492963 0.583333 0.0253797
17895 3 0.169271 0.75 0.10032
17901 3 0.169271 0.25 0.10032
18445 3 0.155198 0.0833329 0.1253
18446 3 0.183345 0.416667 0.1253
18451 3 0.155198 0.583333 0.1253
18452 3 0.183345 0.916667 0.1253
17896 3 0.211492 0.75 0.0753397
17897 3 0.197418 0.0833329 0.10032
17898 3 0.225565 0.416667 0.10032
17902 3 0.211492 0.25 0.0753397
17903 3 0.197418 0.583333 0.10032
17904 3 0.225565 0.916667 0.10032
17905 3 0.239639 0.0833329 0.0753397
17907 1 0.253713 0.75 0.10032
17911 3 0.239639 0.583333 0.0753397
17913 1 0.253713 0.25 0.10032
18448 1 0.211492 0.75 0.1253
18454 1 0.211492 0.25 0.1253
18457 1 0.239639 0.0833329 0.1253
18463 1 0.239639 0.583333 0.1253
17906 3 0.267786 0.416667 0.0753397
17908 1 0.295933 0.75 0.0753397
17909 1 0.28186 0.0833329 0.10032
17910 1 0.310007 0.416667 0.10032
17912 3 0.267786 0.916667 0.0753397
17914 1 0.295933 0.25 0.0753397
17915 1 0.28186 0.583333 0.10032
17916 1 0.310007 0.916667 0.10032
18458 1 0.267786 0.416667 0.1253
18460 1 0.295933 0.75 0.1253
18464 1 0.267786 0.916667 0.1253
18466 1 0.295933 0.25 0.1253
17917 1 0.32408 0.0833329 0.0753397
17918 1 0.352228 0.416667 0.0753397
17919 1 0.338154 0.75 0.10032
17920 1 0.380375 0.75 0.0753397
17921 1 0.366301 0.0833329 0.10032
17923 1 0.32408 0.583333 0.0753397
17924 1 0.352228 0.916667 0.0753397
17925 1 0.338154 0.25 0.10032
17926 1 0.380375 0.25 0.0753397
17927 1 0.366301 0.583333 0.10032
18469 1 0.32408 0.0833329 0.1253
18470 1 0.352228 0.416667 0.1253
18472 1 0.380375 0.75 0.1253
18475 1 0.32408 0.583333 0.1253
18476 1 0.352228 0.916667 0.1253
18478 1 0.380375 0.25 0.1253
17922 1 0.394448 0.416667 0.10032
17928 1 0.394448 0.916667 0.10032
17929 1 0.408522 0.0833329 0.0753397
17930 1 0.436669 0.416667 0.0753397
17931 1 0.422595 0.75 0.10032
17935 1 0.408522 0.583333 0.0753397
17936 1 0.436669 0.916667 0.0753397
17937 1 0.422595 0.25 0.10032
18481 1 0.408522 0.0833329 0.1253
18482 1 0.436669 0.416667 0.1253
18487 1 0.408522 0.583333 0.1253
18488 1 0.436669 0.916667 0.1253
17932 1 0.464816 0.75 0.0753397
17933 1 0.450743 0.0833329 0.10032
17934 1 0.47889 0.416667 0.10032
17938 1 0.464816 0.25 0.0753397
17939 1 0.450743 0.583333 0.10032
17940 1 0.47889 0.916667 0.10032
18484 1 0.464816 0.75 0.1253
18490 1 0.464816 0.25 0.1253
17941 1 0.492963 0.0833329 0.0753397
17947 1 0.492963 0.583333 0.0753397
18493 1 0.492963 0.0833329 0.1253
18499 1 0.492963 0.583333 0.1253
18986 3 0.0989034 0.416667 0.17526
18988 3 0.127051 0.75 0.17526
18992 3 0.0989034 0.916667 0.17526
18994 3 0.127051 0.25 0.17526
18438 3 0.141124 0.416667 0.15028
18444 3 0.141124 0.916667 0.15028
18447 3 0.169271 0.75 0.15028
18453 3 0.169271 0.25 0.15028
18997 1 0.155198 0.0833329 0.17526
18998 1 0.183345 0.416667 0.17526
19003 1 0.155198 0.583333 0.17526
19004 1 0.183345 0.916667 0.17526
18449 1 0.197418 0.0833329 0.15028
18450 1 0.225565 0.416667 0.15028
18455 1 0.197418 0.583333 0.15028
18456 1 0.225565 0.916667 0.15028
18459 1 0.253713 0.75 0.15028
18465 1 0.253713 0.25 0.15028
19000 1 0.211492 0.75 0.17526
19006 1 0.211492 0.25 0.17526
19009 1 0.239639 0.0833329 0.17526
19015 1 0.239639 0.583333 0.17526
18461 1 0.28186 0.0833329 0.15028
18462 1 0.310007 0.416667 0.15028
18467 1 0.28186 0.583333 0.15028
18468 1 0.310007 0.916667 0.15028
19010 1 0.267786 0.416667 0.17526
19012 1 0.295933 0.75 0.17526
19016 1 0.267786 0.916667 0.17526
19018 1 0.295933 0.25 0.17526
18471 1 0.338154 0.75 0.15028
18473 1 0.366301 0.0833329 0.15028
18477 1 0.338154 0.25 0.15028
18479 1 0.366301 0.583333 0.15028
19021 1 0.32408 0.0833329 0.17526
19022 1 0.352228 0.416667 0.17526
19024 1 0.380375 0.75 0.17526
19027 1 0.32408 0.583333 0.17526
19028 1 0.352228 0.916667 0.17526
19030 1 0.380375 0.25 0.17526
18474 1 0.394448 0.416667 0.15028
18480 1 0.394448 0.916667 0.15028
18483 1 0.422595 0.75 0.15028
18489 1 0.422595 0.25 0.15028
19033 1 0.408522 0.0833329 0.17526
19034 1 0.436669 0.416667 0.17526
19039 1 0.408522 0.583333 0.17526
19040 1 0.436669 0.916667 0.17526
18485 1 0.450743 0.0833329 0.15028
18486 1 0.47889 0.416667 0.15028
18491 1 0.450743 0.583333 0.15028
18492 1 0.47889 0.916667 0.15028
19036 1 0.464816 0.75 0.17526
19042 1 0.464816 0.25 0.17526
19045 1 0.492963 0.0833329 0.17526
19051 1 0.492963 0.583333 0.17526
18987 3 0.0848298 0.75 0.20024
18989 3 0.112977 0.0833329 0.20024
18993 3 0.0848298 0.25 0.20024
18995 3 0.112977 0.583333 0.20024
19537 3 0.0707563 0.0833329 0.22522
19538 3 0.0989034 0.416667 0.22522
19540 1 0.127051 0.75 0.22522
19543 3 0.0707563 0.583333 0.22522
19544 3 0.0989034 0.916667 0.22522
19546 1 0.127051 0.25 0.22522
18990 1 0.141124 0.416667 0.20024
18996 1 0.141124 0.916667 0.20024
18999 1 0.169271 0.75 0.20024
19005 1 0.169271 0.25 0.20024
19549 1 0.155198 0.0833329 0.22522
19550 1 0.183345 0.416667 0.22522
19555 1 0.155198 0.583333 0.22522
19556 1 0.183345 0.916667 0.22522
19001 1 0.197418 0.0833329 0.20024
19002 1 0.225565 0.416667 0.20024
19007 1 0.197418 0.583333 0.20024
19008 1 0.225565 0.916667 0.20024
19011 1 0.253713 0.75 0.20024
19017 1 0.253713 0.25 0.20024
19552 1 0.211492 0.75 0.22522
19558 1 0.211492 0.25 0.22522
19561 1 0.239639 0.0833329 0.22522
19567 1 0.239639 0.583333 0.22522
19013 1 0.28186 0.0833329 0.20024
19014 1 0.310007 0.416667 0.20024
19019 1 0.28186 0.583333 0.20024
19020 1 0.310007 0.916667 0.20024
19562 1 0.267786 0.416667 0.22522
19564 1 0.295933 0.75 0.22522
19568 1 0.267786 0.916667 0.22522
19570 1 0.295933 0.25 0.22522
19023 1 0.338154 0.75 0.20024
19025 1 0.366301 0.0833329 0.20024
19029 1 0.338154 0.25 0.20024
19031 1 0.366301 0.583333 0.20024
19573 1 0.32408 0.0833329 0.22522
19574 1 0.352228 0.416667 0.22522
19576 1 0.380375 0.75 0.22522
19579 1 0.32408 0.583333 0.22522
19580 1 0.352228 0.916667 0.22522
19582 1 0.380375 0.25 0.22522
19026 1 0.394448 0.416667 0.20024
19032 1 0.394448 0.916667 0.20024
19035 1 0.422595 0.75 0.20024
19041 1 0.422595 0.25 0.20024
19585 1 0.408522 0.0833329 0.22522
19586 1 0.436669 0.416667 0.22522
19591 1 0.408522 0.583333 0.22522
19592 1 0.436669 0.916667 0.22522
19037 1 0.450743 0.0833329 0.20024
19038 1 0.47889 0.416667 0.20024
19043 1 0.450743 0.583333 0.20024
19044 1 0.47889 0.916667 0.20024
19588 1 0.464816 0.75 0.22522
19594 1 0.464816 0.25 0.22522
19597 1 0.492963 0.0833329 0.22522
19603 1 0.492963 0.583333 0.22522
19530 3 0.0566827 0.416667 0.2502
19536 3 0.0566827 0.916667 0.2502
20080 3 0.0426091 0.75 0.27518
20081 3 0.0285356 0.0833329 0.30016
20082 3 0.0566827 0.416667 0.30016
20086 3 0.0426091 0.25 0.27518
20087 3 0.0285356 0.583333 0.30016
20088 3 0.0566827 0.916667 0.30016
19539 3 0.0848298 0.75 0.2502
19541 1 0.112977 0.0833329 0.2502
19545 3 0.0848298 0.25 0.2502
19547 1 0.112977 0.583333 0.2502
20089 3 0.0707563 0.0833329 0.27518
20090 1 0.0989034 0.416667 0.27518
20091 1 0.0848298 0.75 0.30016
20092 1 0.127051 0.75 0.27518
20093 1 0.112977 0.0833329 0.30016
20095 3 0.0707563 0.583333 0.27518
20096 1 0.0989034 0.916667 0.27518
20097 1 0.0848298 0.25 0.30016
20098 1 0.127051 0.25 0.27518
20099 1 0.112977 0.583333 0.30016
19542 1 0.141124 0.416667 0.2502
19548 1 0.141124 0.916667 0.2502
19551 1 0.169271 0.75 0.2502
19557 1 0.169271 0.25 0.2502
20094 1 0.141124 0.416667 0.30016
20100 1 0.141124 0.916667 0.30016
20101 1 0.155198 0.0833329 0.27518
20102 1 0.183345 0.416667 0.27518
20103 1 0.169271 0.75 0.30016
20107 1 0.155198 0.583333 0.27518
20108 1 0.183345 0.916667 0.27518
20109 1 0.169271 0.25 0.30016
19553 1 0.197418 0.0833329 0.2502
19554 1 0.225565 0.416667 0.2502
19559 1 0.197418 0.583333 0.2502
19560 1 0.225565 0.916667 0.2502
19563 1 0.253713 0.75 0.2502
19569 1 0.253713 0.25 0.2502
20104 1 0.211492 0.75 0.27518
20105 1 0.197418 0.0833329 0.30016
20106 1 0.225565 0.416667 0.30016
20110 1 0.211492 0.25 0.27518
20111 1 0.197418 0.583333 0.30016
20112 1 0.225565 0.916667 0.30016
20113 1 0.239639 0.0833329 0.27518
20115 1 0.253713 0.75 0.30016
20119 1 0.239639 0.583333 0.27518
20121 1 0.253713 0.25 0.30016
19565 1 0.28186 0.0833329 0.2502
19566 1 0.310007 0.416667 0.2502
19571 1 0.28186 0.583333 0.2502
19572 1 0.310007 0.916667 0.2502
20114 1 0.267786 0.416667 0.27518
20116 1 0.295933 0.75 0.27518
20117 1 0.28186 0.0833329 0.30016
20118 1 0.310007 0.416667 0.30016
20120 1 0.267786 0.916667 0.27518
20122 1 0.295933 0.25 0.27518
20123 1 0.28186 0.583333 0.30016
20124 1 0.310007 0.916667 0.30016
19575 1 0.338154 0.75 0.2502
19577 1 0.366301 0.0833329 0.2502
19581 1 0.338154 0.25 0.2502
19583 1 0.366301 0.583333 0.2502
20135 1 0.366301 0.583333 0.30016
20134 1 0.380375 0.25 0.27518
20133 1 0.338154 0.25 0.30016
20132 1 0.352228 0.916667 0.27518
20131 1 0.32408 0.583333 0.27518
20125 1 0.32408 0.0833329 0.27518
20126 1 0.352228 0.416667 0.27518
20127 1 0.338154 0.75 0.30016
20128 1 0.380375 0.75 0.27518
20129 1 0.366301 0.0833329 0.30016
20145 1 0.422595 0.25 0.30016
20144 1 0.436669 0.916667 0.27518
20143 1 0.408522 0.583333 0.27518
19578 1 0.394448 0.416667 0.2502
20139 1 0.422595 0.75 0.30016
20138 1 0.436669 0.416667 0.27518
20137 1 0.408522 0.0833329 0.27518
19584 1 0.394448 0.916667 0.2502
20136 1 0.394448 0.916667 0.30016
19587 1 0.422595 0.75 0.2502
19593 1 0.422595 0.25 0.2502
20130 1 0.394448 0.416667 0.30016
20148 1 0.47889 0.916667 0.30016
20147 1 0.450743 0.583333 0.30016
20146 1 0.464816 0.25 0.27518
20142 1 0.47889 0.416667 0.30016
20141 1 0.450743 0.0833329 0.30016
20140 1 0.464816 0.75 0.27518
19589 1 0.450743 0.0833329 0.2502
19590 1 0.47889 0.416667 0.2502
19595 1 0.450743 0.583333 0.2502
19596 1 0.47889 0.916667 0.2502
20149 1 0.492963 0.0833329 0.27518
20155 1 0.492963 0.583333 0.27518
21190 3 0.0426091 0.25 0.3751
21188 3 0.014462 0.916667 0.3751
21184 3 0.0426091 0.75 0.3751
21182 3 0.014462 0.416667 0.3751
20640 1 0.0566827 0.916667 0.35012
20639 3 0.0285356 0.583333 0.35012
20638 3 0.0426091 0.25 0.32514
20634 1 0.0566827 0.416667 0.35012
20633 3 0.0285356 0.0833329 0.35012
20632 3 0.0426091 0.75 0.32514
21202 1 0.127051 0.25 0.3751
21200 1 0.0989034 0.916667 0.3751
21199 1 0.0707563 0.583333 0.3751
21196 1 0.127051 0.75 0.3751
21194 1 0.0989034 0.416667 0.3751
21193 1 0.0707563 0.0833329 0.3751
20651 1 0.112977 0.583333 0.35012
20650 1 0.127051 0.25 0.32514
20649 1 0.0848298 0.25 0.35012
20648 1 0.0989034 0.916667 0.32514
20647 1 0.0707563 0.583333 0.32514
20645 1 0.112977 0.0833329 0.35012
20644 1 0.127051 0.75 0.32514
20643 1 0.0848298 0.75 0.35012
20642 1 0.0989034 0.416667 0.32514
20641 1 0.0707563 0.0833329 0.32514
21212 1 0.183345 0.916667 0.3751
21211 1 0.155198 0.583333 0.3751
21206 1 0.183345 0.416667 0.3751
21205 1 0.155198 0.0833329 0.3751
20661 1 0.169271 0.25 0.35012
20660 1 0.183345 0.916667 0.32514
20659 1 0.155198 0.583333 0.32514
20655 1 0.169271 0.75 0.35012
20654 1 0.183345 0.416667 0.32514
20653 1 0.155198 0.0833329 0.32514
20652 1 0.141124 0.916667 0.35012
20646 1 0.141124 0.416667 0.35012
21223 1 0.239639 0.583333 0.3751
21217 1 0.239639 0.0833329 0.3751
21214 1 0.211492 0.25 0.3751
21208 1 0.211492 0.75 0.3751
20673 1 0.253713 0.25 0.35012
20671 1 0.239639 0.583333 0.32514
20667 1 0.253713 0.75 0.35012
20665 1 0.239639 0.0833329 0.32514
20664 1 0.225565 0.916667 0.35012
20663 1 0.197418 0.583333 0.35012
20662 1 0.211492 0.25 0.32514
20658 1 0.225565 0.416667 0.35012
20657 1 0.197418 0.0833329 0.35012
20656 1 0.211492 0.75 0.32514
21226 1 0.295933 0.25 0.3751
21224 1 0.267786 0.916667 0.3751
21220 1 0.295933 0.75 0.3751
21218 1 0.267786 0.416667 0.3751
20676 1 0.310007 0.916667 0.35012
20675 1 0.28186 0.583333 0.35012
20674 1 0.295933 0.25 0.32514
20672 1 0.267786 0.916667 0.32514
20670 1 0.310007 0.416667 0.35012
20669 1 0.28186 0.0833329 0.35012
20668 1 0.295933 0.75 0.32514
20666 1 0.267786 0.416667 0.32514
21238 1 0.380375 0.25 0.3751
21236 1 0.352228 0.916667 0.3751
21235 1 0.32408 0.583333 0.3751
21232 1 0.380375 0.75 0.3751
21230 1 0.352228 0.416667 0.3751
21229 1 0.32408 0.0833329 0.3751
20687 1 0.366301 0.583333 0.35012
20686 1 0.380375 0.25 0.32514
20685 1 0.338154 0.25 0.35012
20684 1 0.352228 0.916667 0.32514
20683 1 0.32408 0.583333 0.32514
20681 1 0.366301 0.0833329 0.35012
20680 1 0.380375 0.75 0.32514
20679 1 0.338154 0.75 0.35012
20678 1 0.352228 0.416667 0.32514
20677 1 0.32408 0.0833329 0.32514
21248 1 0.436669 0.916667 0.3751
21247 1 0.408522 0.583333 0.3751
21242 1 0.436669 0.416667 0.3751
21241 1 0.408522 0.0833329 0.3751
20697 1 0.422595 0.25 0.35012
20696 1 0.436669 0.916667 0.32514
20695 1 0.408522 0.583333 0.32514
20691 1 0.422595 0.75 0.35012
20690 1 0.436669 0.416667 0.32514
20689 1 0.408522 0.0833329 0.32514
20688 1 0.394448 0.916667 0.35012
20682 1 0.394448 0.416667 0.35012
21250 1 0.464816 0.25 0.3751
21244 1 0.464816 0.75 0.3751
20700 1 0.47889 0.916667 0.35012
20699 1 0.450743 0.583333 0.35012
20698 1 0.464816 0.25 0.32514
20694 1 0.47889 0.416667 0.35012
20693 1 0.450743 0.0833329 0.35012
20692 1 0.464816 0.75 0.32514
21259 1 0.492963 0.583333 0.3751
21253 1 0.492963 0.0833329 0.3751
20707 1 0.492963 0.583333 0.32514
20701 1 0.492963 0.0833329 0.32514
21742 1 0.0426091 0.25 0.42506
21740 3 0.014462 0.916667 0.42506
21736 1 0.0426091 0.75 0.42506
21734 3 0.014462 0.416667 0.42506
21192 1 0.0566827 0.916667 0.40008
21191 3 0.0285356 0.583333 0.40008
21189 3 0.00038843 0.25 0.40008
21186 1 0.0566827 0.416667 0.40008
21185 3 0.0285356 0.0833329 0.40008
21183 3 0.00038843 0.75 0.40008
21754 1 0.127051 0.25 0.42506
21752 1 0.0989034 0.916667 0.42506
21751 1 0.0707563 0.583333 0.42506
21748 1 0.127051 0.75 0.42506
21746 1 0.0989034 0.416667 0.42506
21745 1 0.0707563 0.0833329 0.42506
21203 1 0.112977 0.583333 0.40008
21201 1 0.0848298 0.25 0.40008
21197 1 0.112977 0.0833329 0.40008
21195 1 0.0848298 0.75 0.40008
21764 1 0.183345 0.916667 0.42506
21763 1 0.155198 0.583333 0.42506
21758 1 0.183345 0.416667 0.42506
21757 1 0.155198 0.0833329 0.42506
21213 1 0.169271 0.25 0.40008
21207 1 0.169271 0.75 0.40008
21204 1 0.141124 0.916667 0.40008
21198 1 0.141124 0.416667 0.40008
21775 1 0.239639 0.583333 0.42506
21769 1 0.239639 0.0833329 0.42506
21766 1 0.211492 0.25 0.42506
21760 1 0.211492 0.75 0.42506
21225 1 0.253713 0.25 0.40008
21219 1 0.253713 0.75 0.40008
21216 1 0.225565 0.916667 0.40008
21215 1 0.197418 0.583333 0.40008
21210 1 0.225565 0.416667 0.40008
21209 1 0.197418 0.0833329 0.40008
21778 1 0.295933 0.25 0.42506
21776 1 0.267786 0.916667 0.42506
21772 1 0.295933 0.75 0.42506
21770 1 0.267786 0.416667 0.42506
21228 1 0.310007 0.916667 0.40008
21227 1 0.28186 0.583333 0.40008
21222 1 0.310007 0.416667 0.40008
21221 1 0.28186 0.0833329 0.40008
21790 1 0.380375 0.25 0.42506
21788 1 0.352228 0.916667 0.42506
21787 1 0.32408 0.583333 0.42506
21784 1 0.380375 0.75 0.42506
21782 1 0.352228 0.416667 0.42506
21781 1 0.32408 0.0833329 0.42506
21239 1 0.366301 0.583333 0.40008
21237 1 0.338154 0.25 0.40008
21233 1 0.366301 0.0833329 0.40008
21231 1 0.338154 0.75 0.40008
21800 1 0.436669 0.916667 0.42506
21799 1 0.408522 0.583333 0.42506
21794 1 0.436669 0.416667 0.42506
21793 1 0.408522 0.0833329 0.42506
21249 1 0.422595 0.25 0.40008
21243 1 0.422595 0.75 0.40008
21240 1 0.394448 0.916667 0.40008
21234 1 0.394448 0.416667 0.40008
21802 1 0.464816 0.25 0.42506
21796 1 0.464816 0.75 0.42506
21252 1 0.47889 0.916667 0.40008
21251 1 0.450743 0.583333 0.40008
21246 1 0.47889 0.416667 0.40008
21245 1 0.450743 0.0833329 0.40008
21811 1 0.492963 0.583333 0.42506
21805 1 0.492963 0.0833329 0.42506
21744 1 0.0566827 0.916667 0.45004
21743 3 0.0285356 0.583333 0.45004
21741 3 0.00038843 0.25 0.45004
21738 1 0.0566827 0.416667 0.45004
21737 3 0.0285356 0.0833329 0.45004
21735 3 0.00038843 0.75 0.45004
22286 3 0.014462 0.416667 0.47502
22287 3 0.00038843 0.75 0.5
22288 1 0.0426091 0.75 0.47502
22289 3 0.0285356 0.0833329 0.5
22290 1 0.0566827 0.416667 0.5
22292 3 0.014462 0.916667 0.47502
22293 3 0.00038843 0.25 0.5
22294 1 0.0426091 0.25 0.47502
22295 3 0.0285356 0.583333 0.5
22296 1 0.0566827 0.916667 0.5
21755 1 0.112977 0.583333 0.45004
21753 1 0.0848298 0.25 0.45004
21749 1 0.112977 0.0833329 0.45004
21747 1 0.0848298 0.75 0.45004
22297 1 0.0707563 0.0833329 0.47502
22298 1 0.0989034 0.416667 0.47502
22299 1 0.0848298 0.75 0.5
22300 1 0.127051 0.75 0.47502
22301 1 0.112977 0.0833329 0.5
22303 1 0.0707563 0.583333 0.47502
22304 1 0.0989034 0.916667 0.47502
22305 1 0.0848298 0.25 0.5
22306 1 0.127051 0.25 0.47502
22307 1 0.112977 0.583333 0.5
21765 1 0.169271 0.25 0.45004
21759 1 0.169271 0.75 0.45004
21756 1 0.141124 0.916667 0.45004
21750 1 0.141124 0.416667 0.45004
22302 1 0.141124 0.416667 0.5
22308 1 0.141124 0.916667 0.5
22309 1 0.155198 0.0833329 0.47502
22310 1 0.183345 0.416667 0.47502
22311 1 0.169271 0.75 0.5
22315 1 0.155198 0.583333 0.47502
22316 1 0.183345 0.916667 0.47502
22317 1 0.169271 0.25 0.5
21777 1 0.253713 0.25 0.45004
21771 1 0.253713 0.75 0.45004
21768 1 0.225565 0.916667 0.45004
21767 1 0.197418 0.583333 0.45004
21762 1 0.225565 0.416667 0.45004
21761 1 0.197418 0.0833329 0.45004
22312 1 0.211492 0.75 0.47502
22313 1 0.197418 0.0833329 0.5
22314 1 0.225565 0.416667 0.5
22318 1 0.211492 0.25 0.47502
22319 1 0.197418 0.583333 0.5
22320 1 0.225565 0.916667 0.5
22321 1 0.239639 0.0833329 0.47502
22323 1 0.253713 0.75 0.5
22327 1 0.239639 0.583333 0.47502
22329 1 0.253713 0.25 0.5
21780 1 0.310007 0.916667 0.45004
21779 1 0.28186 0.583333 0.45004
21774 1 0.310007 0.416667 0.45004
21773 1 0.28186 0.0833329 0.45004
22322 1 0.267786 0.416667 0.47502
22324 1 0.295933 0.75 0.47502
22325 1 0.28186 0.0833329 0.5
22326 1 0.310007 0.416667 0.5
22328 1 0.267786 0.916667 0.47502
22330 1 0.295933 0.25 0.47502
22331 1 0.28186 0.583333 0.5
22332 1 0.310007 0.916667 0.5
21791 1 0.366301 0.583333 0.45004
21789 1 0.338154 0.25 0.45004
21785 1 0.366301 0.0833329 0.45004
21783 1 0.338154 0.75 0.45004
22333 1 0.32408 0.0833329 0.47502
22334 1 0.352228 0.416667 0.47502
22335 1 0.338154 0.75 0.5
22336 1 0.380375 0.75 0.47502
22337 1 0.366301 0.0833329 0.5
22339 1 0.32408 0.583333 0.47502
22340 1 0.352228 0.916667 0.47502
22341 1 0.338154 0.25 0.5
22342 1 0.380375 0.25 0.47502
22343 1 0.366301 0.583333 0.5
21801 1 0.422595 0.25 0.45004
21795 1 0.422595 0.75 0.45004
21792 1 0.394448 0.916667 0.45004
21786 1 0.394448 0.416667 0.45004
22338 1 0.394448 0.416667 0.5
22344 1 0.394448 0.916667 0.5
22345 1 0.408522 0.0833329 0.47502
22346 1 0.436669 0.416667 0.47502
22347 1 0.422595 0.75 0.5
22351 1 0.408522 0.583333 0.47502
22352 1 0.436669 0.916667 0.47502
22353 1 0.422595 0.25 0.5
21804 1 0.47889 0.916667 0.45004
21803 1 0.450743 0.583333 0.45004
21798 1 0.47889 0.416667 0.45004
21797 1 0.450743 0.0833329 0.45004
22348 1 0.464816 0.75 0.47502
22349 1 0.450743 0.0833329 0.5
22350 1 0.47889 0.416667 0.5
22354 1 0.464816 0.25 0.47502
22355 1 0.450743 0.583333 0.5
22356 1 0.47889 0.916667 0.5
22357 1 0.492963 0.0833329 0.47502
22363 1 0.492963 0.583333 0.47502
22838 3 0.014462 0.416667 0.52498
22839 3 0.00038843 0.75 0.54996
22840 1 0.0426091 0.75 0.52498
22841 3 0.0285356 0.0833329 0.54996
22842 1 0.0566827 0.416667 0.54996
22844 3 0.014462 0.916667 0.52498
22845 3 0.00038843 0.25 0.54996
22846 1 0.0426091 0.25 0.52498
22847 3 0.0285356 0.583333 0.54996
22848 1 0.0566827 0.916667 0.54996
22849 1 0.0707563 0.0833329 0.52498
22850 1 0.0989034 0.416667 0.52498
22851 1 0.0848298 0.75 0.54996
22852 1 0.127051 0.75 0.52498
22853 1 0.112977 0.0833329 0.54996
22855 1 0.0707563 0.583333 0.52498
22856 1 0.0989034 0.916667 0.52498
22857 1 0.0848298 0.25 0.54996
22858 1 0.127051 0.25 0.52498
22859 1 0.112977 0.583333 0.54996
22854 1 0.141124 0.416667 0.54996
22860 1 0.141124 0.916667 0.54996
22861 1 0.155198 0.0833329 0.52498
22862 1 0.183345 0.416667 0.52498
22863 1 0.169271 0.75 0.54996
22867 1 0.155198 0.583333 0.52498
22868 1 0.183345 0.916667 0.52498
22869 1 0.169271 0.25 0.54996
22864 1 0.211492 0.75 0.52498
22865 1 0.197418 0.0833329 0.54996
22866 1 0.225565 0.416667 0.54996
22870 1 0.211492 0.25 0.52498
22871 1 0.197418 0.583333 0.54996
22872 1 0.225565 0.916667 0.54996
22873 1 0.239639 0.0833329 0.52498
22875 1 0.253713 0.75 0.54996
22879 1 0.239639 0.583333 0.52498
22881 1 0.253713 0.25 0.54996
22874 1 0.267786 0.416667 0.52498
22876 1 0.295933 0.75 0.52498
22877 1 0.28186 0.0833329 0.54996
22878 1 0.310007 0.416667 0.54996
22880 1 0.267786 0.916667 0.52498
22882 1 0.295933 0.25 0.52498
22883 1 0.28186 0.583333 0.54996
22884 1 0.310007 0.916667 0.54996
22885 1 0.32408 0.0833329 0.52498
22886 1 0.352228 0.416667 0.52498
22887 1 0.338154 0.75 0.54996
22888 1 0.380375 0.75 0.52498
22889 1 0.366301 0.0833329 0.54996
22891 1 0.32408 0.583333 0.52498
22892 1 0.352228 0.916667 0.52498
22893 1 0.338154 0.25 0.54996
22894 1 0.380375 0.25 0.52498
22895 1 0.366301 0.583333 0.54996
22890 1 0.394448 0.416667 0.54996
22896 1 0.394448 0.916667 0.54996
22897 1 0.408522 0.0833329 0.52498
22898 1 0.436669 0.416667 0.52498
22899 1 0.422595 0.75 0.54996
22903 1 0.408522 0.583333 0.52498
22904 1 0.436669 0.916667 0.52498
22905 1 0.422595 0.25 0.54996
22900 1 0.464816 0.75 0.52498
22901 1 0.450743 0.0833329 0.54996
22902 1 0.47889 0.416667 0.54996
22906 1 0.464816 0.25 0.52498
22907 1 0.450743 0.583333 0.54996
22908 1 0.47889 0.916667 0.54996
22909 1 0.492963 0.0833329 0.52498
22915 1 0.492963 0.583333 0.52498
23390 3 0.014462 0.416667 0.57494
23391 3 0.00038843 0.75 0.59992
23392 1 0.0426091 0.75 0.57494
23393 3 0.0285356 0.0833329 0.59992
23394 1 0.0566827 0.416667 0.59992
23396 3 0.014462 0.916667 0.57494
23397 3 0.00038843 0.25 0.59992
23398 1 0.0426091 0.25 0.57494
23399 3 0.0285356 0.583333 0.59992
23400 1 0.0566827 0.916667 0.59992
23942 3 0.014462 0.416667 0.6249
23944 3 0.0426091 0.75 0.6249
23948 3 0.014462 0.916667 0.6249
23950 3 0.0426091 0.25 0.6249
23401 1 0.0707563 0.0833329 0.57494
23402 1 0.0989034 0.416667 0.57494
23403 1 0.0848298 0.75 0.59992
23404 1 0.127051 0.75 0.57494
23405 1 0.112977 0.0833329 0.59992
23407 1 0.0707563 0.583333 0.57494
23408 1 0.0989034 0.916667 0.57494
23409 1 0.0848298 0.25 0.59992
23410 1 0.127051 0.25 0.57494
23411 1 0.112977 0.583333 0.59992
23953 1 0.0707563 0.0833329 0.6249
23954 1 0.0989034 0.416667 0.6249
23956 1 0.127051 0.75 0.6249
23959 1 0.0707563 0.583333 0.6249
23960 1 0.0989034 0.916667 0.6249
23962 1 0.127051 0.25 0.6249
23406 1 0.141124 0.416667 0.59992
23412 1 0.141124 0.916667 0.59992
23413 1 0.155198 0.0833329 0.57494
23414 1 0.183345 0.416667 0.57494
23415 1 0.169271 0.75 0.59992
23419 1 0.155198 0.583333 0.57494
23420 1 0.183345 0.916667 0.57494
23421 1 0.169271 0.25 0.59992
23965 1 0.155198 0.0833329 0.6249
23966 1 0.183345 0.416667 0.6249
23971 1 0.155198 0.583333 0.6249
23972 1 0.183345 0.916667 0.6249
23416 1 0.211492 0.75 0.57494
23417 1 0.197418 0.0833329 0.59992
23418 1 0.225565 0.416667 0.59992
23422 1 0.211492 0.25 0.57494
23423 1 0.197418 0.583333 0.59992
23424 1 0.225565 0.916667 0.59992
23425 1 0.239639 0.0833329 0.57494
23427 1 0.253713 0.75 0.59992
23431 1 0.239639 0.583333 0.57494
23433 1 0.253713 0.25 0.59992
23968 1 0.211492 0.75 0.6249
23974 1 0.211492 0.25 0.6249
23977 1 0.239639 0.0833329 0.6249
23983 1 0.239639 0.583333 0.6249
23426 1 0.267786 0.416667 0.57494
23428 1 0.295933 0.75 0.57494
23429 1 0.28186 0.0833329 0.59992
23430 1 0.310007 0.416667 0.59992
23432 1 0.267786 0.916667 0.57494
23434 1 0.295933 0.25 0.57494
23435 1 0.28186 0.583333 0.59992
23436 1 0.310007 0.916667 0.59992
23978 1 0.267786 0.416667 0.6249
23980 1 0.295933 0.75 0.6249
23984 1 0.267786 0.916667 0.6249
23986 1 0.295933 0.25 0.6249
23437 1 0.32408 0.0833329 0.57494
23438 1 0.352228 0.416667 0.57494
23439 1 0.338154 0.75 0.59992
23440 1 0.380375 0.75 0.57494
23441 1 0.366301 0.0833329 0.59992
23443 1 0.32408 0.583333 0.57494
23444 1 0.352228 0.916667 0.57494
23445 1 0.338154 0.25 0.59992
23446 1 0.380375 0.25 0.57494
23447 1 0.366301 0.583333 0.59992
23989 1 0.32408 0.0833329 0.6249
23990 1 0.352228 0.416667 0.6249
23992 1 0.380375 0.75 0.6249
23995 1 0.32408 0.583333 0.6249
23996 1 0.352228 0.916667 0.6249
23998 1 0.380375 0.25 0.6249
23442 1 0.394448 0.416667 0.59992
23448 1 0.394448 0.916667 0.59992
23449 1 0.408522 0.0833329 0.57494
23450 1 0.436669 0.416667 0.57494
23451 1 0.422595 0.75 0.59992
23455 1 0.408522 0.583333 0.57494
23456 1 0.436669 0.916667 0.57494
23457 1 0.422595 0.25 0.59992
24001 1 0.408522 0.0833329 0.6249
24002 1 0.436669 0.416667 0.6249
24007 1 0.408522 0.583333 0.6249
24008 1 0.436669 0.916667 0.6249
23452 1 0.464816 0.75 0.57494
23453 1 0.450743 0.0833329 0.59992
23454 1 0.47889 0.416667 0.59992
23458 1 0.464816 0.25 0.57494
23459 1 0.450743 0.583333 0.59992
23460 1 0.47889 0.916667 0.59992
24004 1 0.464816 0.75 0.6249
24010 1 0.464816 0.25 0.6249
23461 1 0.492963 0.0833329 0.57494
23467 1 0.492963 0.583333 0.57494
24013 1 0.492963 0.0833329 0.6249
24019 1 0.492963 0.583333 0.6249
23945 3 0.0285356 0.0833329 0.64988
23946 1 0.0566827 0.416667 0.64988
23951 3 0.0285356 0.583333 0.64988
23952 1 0.0566827 0.916667 0.64988
24496 3 0.0426091 0.75 0.67486
24502 3 0.0426091 0.25 0.67486
23955 1 0.0848298 0.75 0.64988
23957 1 0.112977 0.0833329 0.64988
23961 1 0.0848298 0.25 0.64988
23963 1 0.112977 0.583333 0.64988
24505 1 0.0707563 0.0833329 0.67486
24506 1 0.0989034 0.416667 0.67486
24508 1 0.127051 0.75 0.67486
24511 1 0.0707563 0.583333 0.67486
24512 1 0.0989034 0.916667 0.67486
24514 1 0.127051 0.25 0.67486
23958 1 0.141124 0.416667 0.64988
23964 1 0.141124 0.916667 0.64988
23967 1 0.169271 0.75 0.64988
23973 1 0.169271 0.25 0.64988
24517 1 0.155198 0.0833329 0.67486
24518 1 0.183345 0.416667 0.67486
24523 1 0.155198 0.583333 0.67486
24524 1 0.183345 0.916667 0.67486
23969 1 0.197418 0.0833329 0.64988
23970 1 0.225565 0.416667 0.64988
23975 1 0.197418 0.583333 0.64988
23976 1 0.225565 0.916667 0.64988
23979 1 0.253713 0.75 0.64988
23985 1 0.253713 0.25 0.64988
24520 1 0.211492 0.75 0.67486
24526 1 0.211492 0.25 0.67486
24529 1 0.239639 0.0833329 0.67486
24535 1 0.239639 0.583333 0.67486
23981 1 0.28186 0.0833329 0.64988
23982 1 0.310007 0.416667 0.64988
23987 1 0.28186 0.583333 0.64988
23988 1 0.310007 0.916667 0.64988
24530 1 0.267786 0.416667 0.67486
24532 1 0.295933 0.75 0.67486
24536 1 0.267786 0.916667 0.67486
24538 1 0.295933 0.25 0.67486
23991 1 0.338154 0.75 0.64988
23993 1 0.366301 0.0833329 0.64988
23997 1 0.338154 0.25 0.64988
23999 1 0.366301 0.583333 0.64988
24541 1 0.32408 0.0833329 0.67486
24542 1 0.352228 0.416667 0.67486
24544 1 0.380375 0.75 0.67486
24547 1 0.32408 0.583333 0.67486
24548 1 0.352228 0.916667 0.67486
24550 1 0.380375 0.25 0.67486
24560 1 0.436669 0.916667 0.67486
24559 1 0.408522 0.583333 0.67486
23994 1 0.394448 0.416667 0.64988
24000 1 0.394448 0.916667 0.64988
24003 1 0.422595 0.75 0.64988
24009 1 0.422595 0.25 0.64988
24553 1 0.408522 0.0833329 0.67486
24554 1 0.436669 0.416667 0.67486
24562 1 0.464816 0.25 0.67486
24005 1 0.450743 0.0833329 0.64988
24006 1 0.47889 0.416667 0.64988
24011 1 0.450743 0.583333 0.64988
24012 1 0.47889 0.916667 0.64988
24556 1 0.464816 0.75 0.67486
24565 1 0.492963 0.0833329 0.67486
24571 1 0.492963 0.583333 0.67486
25056 3 0.0566827 0.916667 0.7498
25054 3 0.0426091 0.25 0.72482
25050 3 0.0566827 0.416667 0.7498
25048 3 0.0426091 0.75 0.72482
24498 3 0.0566827 0.416667 0.69984
24504 3 0.0566827 0.916667 0.69984
25067 1 0.112977 0.583333 0.7498
25066 1 0.127051 0.25 0.72482
25065 3 0.0848298 0.25 0.7498
25064 1 0.0989034 0.916667 0.72482
25063 3 0.0707563 0.583333 0.72482
25061 1 0.112977 0.0833329 0.7498
25060 1 0.127051 0.75 0.72482
25059 3 0.0848298 0.75 0.7498
25058 1 0.0989034 0.416667 0.72482
25057 3 0.0707563 0.0833329 0.72482
24507 1 0.0848298 0.75 0.69984
24509 1 0.112977 0.0833329 0.69984
24513 1 0.0848298 0.25 0.69984
24515 1 0.112977 0.583333 0.69984
25077 1 0.169271 0.25 0.7498
25076 1 0.183345 0.916667 0.72482
25075 1 0.155198 0.583333 0.72482
25071 1 0.169271 0.75 0.7498
25070 1 0.183345 0.416667 0.72482
25069 1 0.155198 0.0833329 0.72482
25068 1 0.141124 0.916667 0.7498
25062 1 0.141124 0.416667 0.7498
24510 1 0.141124 0.416667 0.69984
24516 1 0.141124 0.916667 0.69984
24519 1 0.169271 0.75 0.69984
24525 1 0.169271 0.25 0.69984
25089 1 0.253713 0.25 0.7498
25087 1 0.239639 0.583333 0.72482
25083 1 0.253713 0.75 0.7498
25081 1 0.239639 0.0833329 0.72482
25080 1 0.225565 0.916667 0.7498
25079 1 0.197418 0.583333 0.7498
25078 1 0.211492 0.25 0.72482
25074 1 0.225565 0.416667 0.7498
25073 1 0.197418 0.0833329 0.7498
25072 1 0.211492 0.75 0.72482