ITEM: TIMESTEP
0
ITEM: NUMBER OF ATOMS
2340
ITEM: BOX BOUNDS ss pp ss
-4.0972079223999998e+01 4.1846228795000002e+01
-4.1208122699999999e-01 4.5329187729999996e+00
-4.0660457756000000e+01 4.0155737936000001e+01
ITEM: ATOMS id type xs ys zs
16806 3 0.310007 0.416667 0.0253797
16812 3 0.310007 0.916667 0.0253797
17354 3 0.267786 0.416667 0.0503597
17356 3 0.295933 0.75 0.0503597
17360 3 0.267786 0.916667 0.0503597
17362 3 0.295933 0.25 0.0503597
16815 3 0.338154 0.75 0.0253797
16816 3 0.380375 0.75 0.00039968
16817 3 0.366301 0.0833329 0.0253797
16821 3 0.338154 0.25 0.0253797
16822 3 0.380375 0.25 0.00039968
16823 3 0.366301 0.583333 0.0253797
17365 3 0.32408 0.0833329 0.0503597
17366 1 0.352228 0.416667 0.0503597
17368 1 0.380375 0.75 0.0503597
17371 3 0.32408 0.583333 0.0503597
17372 1 0.352228 0.916667 0.0503597
17374 1 0.380375 0.25 0.0503597
16818 3 0.394448 0.416667 0.0253797
16824 3 0.394448 0.916667 0.0253797
16825 3 0.408522 0.0833329 0.00039968
16826 3 0.436669 0.416667 0.00039968
16827 3 0.422595 0.75 0.0253797
16831 3 0.408522 0.583333 0.00039968
16832 3 0.436669 0.916667 0.00039968
16833 3 0.422595 0.25 0.0253797
17377 1 0.408522 0.0833329 0.0503597
17378 1 0.436669 0.416667 0.0503597
17383 1 0.408522 0.583333 0.0503597
17384 1 0.436669 0.916667 0.0503597
16828 3 0.464816 0.75 0.00039968
16829 3 0.450743 0.0833329 0.0253797
16830 3 0.47889 0.416667 0.0253797
16834 3 0.464816 0.25 0.00039968
16835 3 0.450743 0.583333 0.0253797
16836 3 0.47889 0.916667 0.0253797
17380 1 0.464816 0.75 0.0503597
17386 1 0.464816 0.25 0.0503597
16837 3 0.492963 0.0833329 0.00039968
16843 3 0.492963 0.583333 0.00039968
17389 1 0.492963 0.0833329 0.0503597
17395 1 0.492963 0.583333 0.0503597
17894 3 0.183345 0.416667 0.10032
17895 3 0.169271 0.75 0.1253
17900 3 0.183345 0.916667 0.10032
17901 3 0.169271 0.25 0.1253
17346 3 0.225565 0.416667 0.0753397
17352 3 0.225565 0.916667 0.0753397
17355 3 0.253713 0.75 0.0753397
17361 3 0.253713 0.25 0.0753397
17896 3 0.211492 0.75 0.10032
17897 3 0.197418 0.0833329 0.1253
17898 1 0.225565 0.416667 0.1253
17902 3 0.211492 0.25 0.10032
17903 3 0.197418 0.583333 0.1253
17904 1 0.225565 0.916667 0.1253
17905 3 0.239639 0.0833329 0.10032
17907 1 0.253713 0.75 0.1253
17911 3 0.239639 0.583333 0.10032
17913 1 0.253713 0.25 0.1253
17357 3 0.28186 0.0833329 0.0753397
17358 1 0.310007 0.416667 0.0753397
17363 3 0.28186 0.583333 0.0753397
17364 1 0.310007 0.916667 0.0753397
17906 1 0.267786 0.416667 0.10032
17908 1 0.295933 0.75 0.10032
17909 1 0.28186 0.0833329 0.1253
17910 1 0.310007 0.416667 0.1253
17912 1 0.267786 0.916667 0.10032
17914 1 0.295933 0.25 0.10032
17915 1 0.28186 0.583333 0.1253
17916 1 0.310007 0.916667 0.1253
17367 1 0.338154 0.75 0.0753397
17369 1 0.366301 0.0833329 0.0753397
17373 1 0.338154 0.25 0.0753397
17375 1 0.366301 0.583333 0.0753397
17917 1 0.32408 0.0833329 0.10032
17918 1 0.352228 0.416667 0.10032
17919 1 0.338154 0.75 0.1253
17920 1 0.380375 0.75 0.10032
17921 1 0.366301 0.0833329 0.1253
17923 1 0.32408 0.583333 0.10032
17924 1 0.352228 0.916667 0.10032
17925 1 0.338154 0.25 0.1253
17926 1 0.380375 0.25 0.10032
17927 1 0.366301 0.583333 0.1253
17370 1 0.394448 0.416667 0.0753397
17376 1 0.394448 0.916667 0.0753397
17379 1 0.422595 0.75 0.0753397
17385 1 0.422595 0.25 0.0753397
17922 1 0.394448 0.416667 0.1253
17928 1 0.394448 0.916667 0.1253
17929 1 0.408522 0.0833329 0.10032
17930 1 0.436669 0.416667 0.10032
17931 1 0.422595 0.75 0.1253
17935 1 0.408522 0.583333 0.10032
17936 1 0.436669 0.916667 0.10032
17937 1 0.422595 0.25 0.1253
17381 1 0.450743 0.0833329 0.0753397
17382 1 0.47889 0.416667 0.0753397
17387 1 0.450743 0.583333 0.0753397
17388 1 0.47889 0.916667 0.0753397
17932 1 0.464816 0.75 0.10032
17933 1 0.450743 0.0833329 0.1253
17934 1 0.47889 0.416667 0.1253
17938 1 0.464816 0.25 0.10032
17939 1 0.450743 0.583333 0.1253
17940 1 0.47889 0.916667 0.1253
17941 1 0.492963 0.0833329 0.10032
17947 1 0.492963 0.583333 0.10032
18436 3 0.127051 0.75 0.15028
18437 3 0.112977 0.0833329 0.17526
18442 3 0.127051 0.25 0.15028
18443 3 0.112977 0.583333 0.17526
18438 3 0.141124 0.416667 0.17526
18444 3 0.141124 0.916667 0.17526
18445 3 0.155198 0.0833329 0.15028
18446 1 0.183345 0.416667 0.15028
18447 1 0.169271 0.75 0.17526
18451 3 0.155198 0.583333 0.15028
18452 1 0.183345 0.916667 0.15028
18453 1 0.169271 0.25 0.17526
18448 1 0.211492 0.75 0.15028
18449 1 0.197418 0.0833329 0.17526
18450 1 0.225565 0.416667 0.17526
18454 1 0.211492 0.25 0.15028
18455 1 0.197418 0.583333 0.17526
18456 1 0.225565 0.916667 0.17526
18457 1 0.239639 0.0833329 0.15028
18459 1 0.253713 0.75 0.17526
18463 1 0.239639 0.583333 0.15028
18465 1 0.253713 0.25 0.17526
18458 1 0.267786 0.416667 0.15028
18460 1 0.295933 0.75 0.15028
18461 1 0.28186 0.0833329 0.17526
18462 1 0.310007 0.416667 0.17526
18464 1 0.267786 0.916667 0.15028
18466 1 0.295933 0.25 0.15028
18467 1 0.28186 0.583333 0.17526
18468 1 0.310007 0.916667 0.17526
18469 1 0.32408 0.0833329 0.15028
18470 1 0.352228 0.416667 0.15028
18471 1 0.338154 0.75 0.17526
18472 1 0.380375 0.75 0.15028
18473 1 0.366301 0.0833329 0.17526
18475 1 0.32408 0.583333 0.15028
18476 1 0.352228 0.916667 0.15028
18477 1 0.338154 0.25 0.17526
18478 1 0.380375 0.25 0.15028
18479 1 0.366301 0.583333 0.17526
18474 1 0.394448 0.416667 0.17526
18480 1 0.394448 0.916667 0.17526
18481 1 0.408522 0.0833329 0.15028
18482 1 0.436669 0.416667 0.15028
18483 1 0.422595 0.75 0.17526
18487 1 0.408522 0.583333 0.15028
18488 1 0.436669 0.916667 0.15028
18489 1 0.422595 0.25 0.17526
18484 1 0.464816 0.75 0.15028
18485 1 0.450743 0.0833329 0.17526
18486 1 0.47889 0.416667 0.17526
18490 1 0.464816 0.25 0.15028
18491 1 0.450743 0.583333 0.17526
18492 1 0.47889 0.916667 0.17526
18493 1 0.492963 0.0833329 0.15028
18499 1 0.492963 0.583333 0.15028
18986 3 0.0989034 0.416667 0.20024
18987 3 0.0848298 0.75 0.22522
18988 3 0.127051 0.75 0.20024
18989 3 0.112977 0.0833329 0.22522
18992 3 0.0989034 0.916667 0.20024
18993 3 0.0848298 0.25 0.22522
18994 3 0.127051 0.25 0.20024
18995 3 0.112977 0.583333 0.22522
18990 1 0.141124 0.416667 0.22522
18996 1 0.141124 0.916667 0.22522
18997 1 0.155198 0.0833329 0.20024
18998 1 0.183345 0.416667 0.20024
18999 1 0.169271 0.75 0.22522
19003 1 0.155198 0.583333 0.20024
19004 1 0.183345 0.916667 0.20024
19005 1 0.169271 0.25 0.22522
19000 1 0.211492 0.75 0.20024
19001 1 0.197418 0.0833329 0.22522
19002 1 0.225565 0.416667 0.22522
19006 1 0.211492 0.25 0.20024
19007 1 0.197418 0.583333 0.22522
19008 1 0.225565 0.916667 0.22522
19009 1 0.239639 0.0833329 0.20024
19011 1 0.253713 0.75 0.22522
19015 1 0.239639 0.583333 0.20024
19017 1 0.253713 0.25 0.22522
19010 1 0.267786 0.416667 0.20024
19012 1 0.295933 0.75 0.20024
19013 1 0.28186 0.0833329 0.22522
19014 1 0.310007 0.416667 0.22522
19016 1 0.267786 0.916667 0.20024
19018 1 0.295933 0.25 0.20024
19019 1 0.28186 0.583333 0.22522
19020 1 0.310007 0.916667 0.22522
19021 1 0.32408 0.0833329 0.20024
19022 1 0.352228 0.416667 0.20024
19023 1 0.338154 0.75 0.22522
19024 1 0.380375 0.75 0.20024
19025 1 0.366301 0.0833329 0.22522
19027 1 0.32408 0.583333 0.20024
19028 1 0.352228 0.916667 0.20024
19029 1 0.338154 0.25 0.22522
19030 1 0.380375 0.25 0.20024
19031 1 0.366301 0.583333 0.22522
19026 1 0.394448 0.416667 0.22522
19032 1 0.394448 0.916667 0.22522
19033 1 0.408522 0.0833329 0.20024
19034 1 0.436669 0.416667 0.20024
19035 1 0.422595 0.75 0.22522
19039 1 0.408522 0.583333 0.20024
19040 1 0.436669 0.916667 0.20024
19041 1 0.422595 0.25 0.22522
19036 1 0.464816 0.75 0.20024
19037 1 0.450743 0.0833329 0.22522
19038 1 0.47889 0.416667 0.22522
19042 1 0.464816 0.25 0.20024
19043 1 0.450743 0.583333 0.22522
19044 1 0.47889 0.916667 0.22522
19045 1 0.492963 0.0833329 0.20024
19051 1 0.492963 0.583333 0.20024
19530 3 0.0566827 0.416667 0.27518
19536 3 0.0566827 0.916667 0.27518
20080 3 0.0426091 0.75 0.30016
20086 3 0.0426091 0.25 0.30016
19537 3 0.0707563 0.0833329 0.2502
19538 3 0.0989034 0.416667 0.2502
19539 3 0.0848298 0.75 0.27518
19540 1 0.127051 0.75 0.2502
19541 1 0.112977 0.0833329 0.27518
19543 3 0.0707563 0.583333 0.2502
19544 3 0.0989034 0.916667 0.2502
19545 3 0.0848298 0.25 0.27518
19546 1 0.127051 0.25 0.2502
19547 1 0.112977 0.583333 0.27518
20089 3 0.0707563 0.0833329 0.30016
20090 1 0.0989034 0.416667 0.30016
20092 1 0.127051 0.75 0.30016
20095 3 0.0707563 0.583333 0.30016
20096 1 0.0989034 0.916667 0.30016
20098 1 0.127051 0.25 0.30016
19542 1 0.141124 0.416667 0.27518
19548 1 0.141124 0.916667 0.27518
19549 1 0.155198 0.0833329 0.2502
19550 1 0.183345 0.416667 0.2502
19551 1 0.169271 0.75 0.27518
19555 1 0.155198 0.583333 0.2502
19556 1 0.183345 0.916667 0.2502
19557 1 0.169271 0.25 0.27518
20101 1 0.155198 0.0833329 0.30016
20102 1 0.183345 0.416667 0.30016
20107 1 0.155198 0.583333 0.30016
20108 1 0.183345 0.916667 0.30016
19552 1 0.211492 0.75 0.2502
19553 1 0.197418 0.0833329 0.27518
19554 1 0.225565 0.416667 0.27518
19558 1 0.211492 0.25 0.2502
19559 1 0.197418 0.583333 0.27518
19560 1 0.225565 0.916667 0.27518
19561 1 0.239639 0.0833329 0.2502
19563 1 0.253713 0.75 0.27518
19567 1 0.239639 0.583333 0.2502
19569 1 0.253713 0.25 0.27518
20104 1 0.211492 0.75 0.30016
20110 1 0.211492 0.25 0.30016
20113 1 0.239639 0.0833329 0.30016
20119 1 0.239639 0.583333 0.30016
19562 1 0.267786 0.416667 0.2502
19564 1 0.295933 0.75 0.2502
19565 1 0.28186 0.0833329 0.27518
19566 1 0.310007 0.416667 0.27518
19568 1 0.267786 0.916667 0.2502
19570 1 0.295933 0.25 0.2502
19571 1 0.28186 0.583333 0.27518
19572 1 0.310007 0.916667 0.27518
20114 1 0.267786 0.416667 0.30016
20116 1 0.295933 0.75 0.30016
20120 1 0.267786 0.916667 0.30016
20122 1 0.295933 0.25 0.30016
19573 1 0.32408 0.0833329 0.2502
19574 1 0.352228 0.416667 0.2502
19575 1 0.338154 0.75 0.27518
19576 1 0.380375 0.75 0.2502
19577 1 0.366301 0.0833329 0.27518
19579 1 0.32408 0.583333 0.2502
19580 1 0.352228 0.916667 0.2502
19581 1 0.338154 0.25 0.27518
19582 1 0.380375 0.25 0.2502
19583 1 0.366301 0.583333 0.27518
20125 1 0.32408 0.0833329 0.30016
20126 1 0.352228 0.416667 0.30016
20128 1 0.380375 0.75 0.30016
20131 1 0.32408 0.583333 0.30016
20132 1 0.352228 0.916667 0.30016
20134 1 0.380375 0.25 0.30016
20144 1 0.436669 0.916667 0.30016
20143 1 0.408522 0.583333 0.30016
19578 1 0.394448 0.416667 0.27518
19584 1 0.394448 0.916667 0.27518
19585 1 0.408522 0.0833329 0.2502
19586 1 0.436669 0.416667 0.2502
19587 1 0.422595 0.75 0.27518
19591 1 0.408522 0.583333 0.2502
19592 1 0.436669 0.916667 0.2502
19593 1 0.422595 0.25 0.27518
20137 1 0.408522 0.0833329 0.30016
20138 1 0.436669 0.416667 0.30016
20146 1 0.464816 0.25 0.30016
19588 1 0.464816 0.75 0.2502
19589 1 0.450743 0.0833329 0.27518
19590 1 0.47889 0.416667 0.27518
19594 1 0.464816 0.25 0.2502
19595 1 0.450743 0.583333 0.27518
19596 1 0.47889 0.916667 0.27518
20140 1 0.464816 0.75 0.30016
19597 1 0.492963 0.0833329 0.2502
19603 1 0.492963 0.583333 0.2502
20149 1 0.492963 0.0833329 0.30016
20155 1 0.492963 0.583333 0.30016
20640 1 0.0566827 0.916667 0.3751
20639 3 0.0285356 0.583333 0.3751
20638 3 0.0426091 0.25 0.35012
20636 3 0.014462 0.916667 0.35012
20634 1 0.0566827 0.416667 0.3751
20633 3 0.0285356 0.0833329 0.3751
20632 3 0.0426091 0.75 0.35012
20630 3 0.014462 0.416667 0.35012
20081 3 0.0285356 0.0833329 0.32514
20082 3 0.0566827 0.416667 0.32514
20087 3 0.0285356 0.583333 0.32514
20088 3 0.0566827 0.916667 0.32514
20651 1 0.112977 0.583333 0.3751
20650 1 0.127051 0.25 0.35012
20649 1 0.0848298 0.25 0.3751
20648 1 0.0989034 0.916667 0.35012
20647 1 0.0707563 0.583333 0.35012
20645 1 0.112977 0.0833329 0.3751
20644 1 0.127051 0.75 0.35012
20643 1 0.0848298 0.75 0.3751
20642 1 0.0989034 0.416667 0.35012
20641 1 0.0707563 0.0833329 0.35012
20091 1 0.0848298 0.75 0.32514
20093 1 0.112977 0.0833329 0.32514
20097 1 0.0848298 0.25 0.32514
20099 1 0.112977 0.583333 0.32514
20661 1 0.169271 0.25 0.3751
20660 1 0.183345 0.916667 0.35012
20659 1 0.155198 0.583333 0.35012
20655 1 0.169271 0.75 0.3751
20654 1 0.183345 0.416667 0.35012
20653 1 0.155198 0.0833329 0.35012
20652 1 0.141124 0.916667 0.3751
20646 1 0.141124 0.416667 0.3751
20094 1 0.141124 0.416667 0.32514
20100 1 0.141124 0.916667 0.32514
20103 1 0.169271 0.75 0.32514
20109 1 0.169271 0.25 0.32514
20673 1 0.253713 0.25 0.3751
20671 1 0.239639 0.583333 0.35012
20667 1 0.253713 0.75 0.3751
20665 1 0.239639 0.0833329 0.35012
20664 1 0.225565 0.916667 0.3751
20663 1 0.197418 0.583333 0.3751
20662 1 0.211492 0.25 0.35012
20658 1 0.225565 0.416667 0.3751
20657 1 0.197418 0.0833329 0.3751
20656 1 0.211492 0.75 0.35012
20105 1 0.197418 0.0833329 0.32514
20106 1 0.225565 0.416667 0.32514
20111 1 0.197418 0.583333 0.32514
20112 1 0.225565 0.916667 0.32514
20115 1 0.253713 0.75 0.32514
20121 1 0.253713 0.25 0.32514
20676 1 0.310007 0.916667 0.3751
20675 1 0.28186 0.583333 0.3751
20674 1 0.295933 0.25 0.35012
20672 1 0.267786 0.916667 0.35012
20670 1 0.310007 0.416667 0.3751
20669 1 0.28186 0.0833329 0.3751
20668 1 0.295933 0.75 0.35012
20666 1 0.267786 0.416667 0.35012
20117 1 0.28186 0.0833329 0.32514
20118 1 0.310007 0.416667 0.32514
20123 1 0.28186 0.583333 0.32514
20124 1 0.310007 0.916667 0.32514
20687 1 0.366301 0.583333 0.3751
20686 1 0.380375 0.25 0.35012
20685 1 0.338154 0.25 0.3751
20684 1 0.352228 0.916667 0.35012
20683 1 0.32408 0.583333 0.35012
20681 1 0.366301 0.0833329 0.3751
20680 1 0.380375 0.75 0.35012
20679 1 0.338154 0.75 0.3751
20678 1 0.352228 0.416667 0.35012
20677 1 0.32408 0.0833329 0.35012
20127 1 0.338154 0.75 0.32514
20129 1 0.366301 0.0833329 0.32514
20133 1 0.338154 0.25 0.32514
20135 1 0.366301 0.583333 0.32514
20697 1 0.422595 0.25 0.3751
20696 1 0.436669 0.916667 0.35012
20695 1 0.408522 0.583333 0.35012
20691 1 0.422595 0.75 0.3751
20690 1 0.436669 0.416667 0.35012
20689 1 0.408522 0.0833329 0.35012
20688 1 0.394448 0.916667 0.3751
20682 1 0.394448 0.416667 0.3751
20145 1 0.422595 0.25 0.32514
20130 1 0.394448 0.416667 0.32514
20136 1 0.394448 0.916667 0.32514
20139 1 0.422595 0.75 0.32514
20700 1 0.47889 0.916667 0.3751
20699 1 0.450743 0.583333 0.3751
20698 1 0.464816 0.25 0.35012
20694 1 0.47889 0.416667 0.3751
20693 1 0.450743 0.0833329 0.3751
20692 1 0.464816 0.75 0.35012
20148 1 0.47889 0.916667 0.32514
20147 1 0.450743 0.583333 0.32514
20142 1 0.47889 0.416667 0.32514
20141 1 0.450743 0.0833329 0.32514
20707 1 0.492963 0.583333 0.35012
20701 1 0.492963 0.0833329 0.35012
21192 1 0.0566827 0.916667 0.42506
21191 3 0.0285356 0.583333 0.42506
21190 1 0.0426091 0.25 0.40008
21189 3 0.00038843 0.25 0.42506
21188 3 0.014462 0.916667 0.40008
21186 1 0.0566827 0.416667 0.42506
21185 3 0.0285356 0.0833329 0.42506
21184 1 0.0426091 0.75 0.40008
21183 3 0.00038843 0.75 0.42506
21182 3 0.014462 0.416667 0.40008
21203 1 0.112977 0.583333 0.42506
21202 1 0.127051 0.25 0.40008
21201 1 0.0848298 0.25 0.42506
21200 1 0.0989034 0.916667 0.40008
21199 1 0.0707563 0.583333 0.40008
21197 1 0.112977 0.0833329 0.42506
21196 1 0.127051 0.75 0.40008
21195 1 0.0848298 0.75 0.42506
21194 1 0.0989034 0.416667 0.40008
21193 1 0.0707563 0.0833329 0.40008
21213 1 0.169271 0.25 0.42506
21212 1 0.183345 0.916667 0.40008
21211 1 0.155198 0.583333 0.40008
21207 1 0.169271 0.75 0.42506
21206 1 0.183345 0.416667 0.40008
21205 1 0.155198 0.0833329 0.40008
21204 1 0.141124 0.916667 0.42506
21198 1 0.141124 0.416667 0.42506
21225 1 0.253713 0.25 0.42506
21223 1 0.239639 0.583333 0.40008
21219 1 0.253713 0.75 0.42506
21217 1 0.239639 0.0833329 0.40008
21216 1 0.225565 0.916667 0.42506
21215 1 0.197418 0.583333 0.42506
21214 1 0.211492 0.25 0.40008
21210 1 0.225565 0.416667 0.42506
21209 1 0.197418 0.0833329 0.42506
21208 1 0.211492 0.75 0.40008
21228 1 0.310007 0.916667 0.42506
21227 1 0.28186 0.583333 0.42506
21226 1 0.295933 0.25 0.40008
21224 1 0.267786 0.916667 0.40008
21222 1 0.310007 0.416667 0.42506
21221 1 0.28186 0.0833329 0.42506
21220 1 0.295933 0.75 0.40008
21218 1 0.267786 0.416667 0.40008
21239 1 0.366301 0.583333 0.42506
21238 1 0.380375 0.25 0.40008
21237 1 0.338154 0.25 0.42506
21236 1 0.352228 0.916667 0.40008
21235 1 0.32408 0.583333 0.40008
21233 1 0.366301 0.0833329 0.42506
21232 1 0.380375 0.75 0.40008
21231 1 0.338154 0.75 0.42506
21230 1 0.352228 0.416667 0.40008
21229 1 0.32408 0.0833329 0.40008
21249 1 0.422595 0.25 0.42506
21248 1 0.436669 0.916667 0.40008
21247 1 0.408522 0.583333 0.40008
21243 1 0.422595 0.75 0.42506
21242 1 0.436669 0.416667 0.40008
21241 1 0.408522 0.0833329 0.40008
21240 1 0.394448 0.916667 0.42506
21234 1 0.394448 0.416667 0.42506
21252 1 0.47889 0.916667 0.42506
21251 1 0.450743 0.583333 0.42506
21250 1 0.464816 0.25 0.40008
21246 1 0.47889 0.416667 0.42506
21245 1 0.450743 0.0833329 0.42506
21244 1 0.464816 0.75 0.40008
21259 1 0.492963 0.583333 0.40008
21253 1 0.492963 0.0833329 0.40008
21744 1 0.0566827 0.916667 0.47502
21743 3 0.0285356 0.583333 0.47502
21742 1 0.0426091 0.25 0.45004
21741 3 0.00038843 0.25 0.47502
21740 3 0.014462 0.916667 0.45004
21738 1 0.0566827 0.416667 0.47502
21737 3 0.0285356 0.0833329 0.47502
21736 1 0.0426091 0.75 0.45004
21735 3 0.00038843 0.75 0.47502
21734 3 0.014462 0.416667 0.45004
22286 3 0.014462 0.416667 0.5
22288 1 0.0426091 0.75 0.5
22292 3 0.014462 0.916667 0.5
22294 1 0.0426091 0.25 0.5
21755 1 0.112977 0.583333 0.47502
21754 1 0.127051 0.25 0.45004
21753 1 0.0848298 0.25 0.47502
21752 1 0.0989034 0.916667 0.45004
21751 1 0.0707563 0.583333 0.45004
21749 1 0.112977 0.0833329 0.47502
21748 1 0.127051 0.75 0.45004
21747 1 0.0848298 0.75 0.47502
21746 1 0.0989034 0.416667 0.45004
21745 1 0.0707563 0.0833329 0.45004
22297 1 0.0707563 0.0833329 0.5
22298 1 0.0989034 0.416667 0.5
22300 1 0.127051 0.75 0.5
22303 1 0.0707563 0.583333 0.5
22304 1 0.0989034 0.916667 0.5
22306 1 0.127051 0.25 0.5
21765 1 0.169271 0.25 0.47502
21764 1 0.183345 0.916667 0.45004
21763 1 0.155198 0.583333 0.45004
21759 1 0.169271 0.75 0.47502
21758 1 0.183345 0.416667 0.45004
21757 1 0.155198 0.0833329 0.45004
21756 1 0.141124 0.916667 0.47502
21750 1 0.141124 0.416667 0.47502
22309 1 0.155198 0.0833329 0.5
22310 1 0.183345 0.416667 0.5
22315 1 0.155198 0.583333 0.5
22316 1 0.183345 0.916667 0.5
21777 1 0.253713 0.25 0.47502
21775 1 0.239639 0.583333 0.45004
21771 1 0.253713 0.75 0.47502
21769 1 0.239639 0.0833329 0.45004
21768 1 0.225565 0.916667 0.47502
21767 1 0.197418 0.583333 0.47502
21766 1 0.211492 0.25 0.45004
21762 1 0.225565 0.416667 0.47502
21761 1 0.197418 0.0833329 0.47502
21760 1 0.211492 0.75 0.45004
22312 1 0.211492 0.75 0.5
22318 1 0.211492 0.25 0.5
22321 1 0.239639 0.0833329 0.5
22327 1 0.239639 0.583333 0.5
21780 1 0.310007 0.916667 0.47502
21779 1 0.28186 0.583333 0.47502
21778 1 0.295933 0.25 0.45004
21776 1 0.267786 0.916667 0.45004
21774 1 0.310007 0.416667 0.47502
21773 1 0.28186 0.0833329 0.47502
21772 1 0.295933 0.75 0.45004
21770 1 0.267786 0.416667 0.45004
22322 1 0.267786 0.416667 0.5
22324 1 0.295933 0.75 0.5
22328 1 0.267786 0.916667 0.5
22330 1 0.295933 0.25 0.5
21791 1 0.366301 0.583333 0.47502
21790 1 0.380375 0.25 0.45004
21789 1 0.338154 0.25 0.47502
21788 1 0.352228 0.916667 0.45004
21787 1 0.32408 0.583333 0.45004
21785 1 0.366301 0.0833329 0.47502
21784 1 0.380375 0.75 0.45004
21783 1 0.338154 0.75 0.47502
21782 1 0.352228 0.416667 0.45004
21781 1 0.32408 0.0833329 0.45004
22333 1 0.32408 0.0833329 0.5
22334 1 0.352228 0.416667 0.5
22336 1 0.380375 0.75 0.5
22339 1 0.32408 0.583333 0.5
22340 1 0.352228 0.916667 0.5
22342 1 0.380375 0.25 0.5
21801 1 0.422595 0.25 0.47502
21800 1 0.436669 0.916667 0.45004
21799 1 0.408522 0.583333 0.45004
21795 1 0.422595 0.75 0.47502
21794 1 0.436669 0.416667 0.45004
21793 1 0.408522 0.0833329 0.45004
21792 1 0.394448 0.916667 0.47502
21786 1 0.394448 0.416667 0.47502
22345 1 0.408522 0.0833329 0.5
22346 1 0.436669 0.416667 0.5
22351 1 0.408522 0.583333 0.5
22352 1 0.436669 0.916667 0.5
21804 1 0.47889 0.916667 0.47502
21803 1 0.450743 0.583333 0.47502
21802 1 0.464816 0.25 0.45004
21798 1 0.47889 0.416667 0.47502
21797 1 0.450743 0.0833329 0.47502
21796 1 0.464816 0.75 0.45004
22348 1 0.464816 0.75 0.5
22354 1 0.464816 0.25 0.5
21811 1 0.492963 0.583333 0.45004
21805 1 0.492963 0.0833329 0.45004
22357 1 0.492963 0.0833329 0.5
22363 1 0.492963 0.583333 0.5
22287 3 0.00038843 0.75 0.52498
22289 3 0.0285356 0.0833329 0.52498
22290 1 0.0566827 0.416667 0.52498
22293 3 0.00038843 0.25 0.52498
22295 3 0.0285356 0.583333 0.52498
22296 1 0.0566827 0.916667 0.52498
22838 3 0.014462 0.416667 0.54996
22840 1 0.0426091 0.75 0.54996
22844 3 0.014462 0.916667 0.54996
22846 1 0.0426091 0.25 0.54996
22299 1 0.0848298 0.75 0.52498
22301 1 0.112977 0.0833329 0.52498
22305 1 0.0848298 0.25 0.52498
22307 1 0.112977 0.583333 0.52498
22849 1 0.0707563 0.0833329 0.54996
22850 1 0.0989034 0.416667 0.54996
22852 1 0.127051 0.75 0.54996
22855 1 0.0707563 0.583333 0.54996
22856 1 0.0989034 0.916667 0.54996
22858 1 0.127051 0.25 0.54996
22302 1 0.141124 0.416667 0.52498
22308 1 0.141124 0.916667 0.52498
22311 1 0.169271 0.75 0.52498
22317 1 0.169271 0.25 0.52498
22861 1 0.155198 0.0833329 0.54996
22862 1 0.183345 0.416667 0.54996
22867 1 0.155198 0.583333 0.54996
22868 1 0.183345 0.916667 0.54996
22313 1 0.197418 0.0833329 0.52498
22314 1 0.225565 0.416667 0.52498
22319 1 0.197418 0.583333 0.52498
22320 1 0.225565 0.916667 0.52498
22323 1 0.253713 0.75 0.52498
22329 1 0.253713 0.25 0.52498
22864 1 0.211492 0.75 0.54996
22870 1 0.211492 0.25 0.54996
22873 1 0.239639 0.0833329 0.54996
22879 1 0.239639 0.583333 0.54996
22325 1 0.28186 0.0833329 0.52498
22326 1 0.310007 0.416667 0.52498
22331 1 0.28186 0.583333 0.52498
22332 1 0.310007 0.916667 0.52498
22874 1 0.267786 0.416667 0.54996
22876 1 0.295933 0.75 0.54996
22880 1 0.267786 0.916667 0.54996
22882 1 0.295933 0.25 0.54996
22335 1 0.338154 0.75 0.52498
22337 1 0.366301 0.0833329 0.52498
22341 1 0.338154 0.25 0.52498
22343 1 0.366301 0.583333 0.52498
22885 1 0.32408 0.0833329 0.54996
22886 1 0.352228 0.416667 0.54996
22888 1 0.380375 0.75 0.54996
22891 1 0.32408 0.583333 0.54996
22892 1 0.352228 0.916667 0.54996
22894 1 0.380375 0.25 0.54996
22338 1 0.394448 0.416667 0.52498
22344 1 0.394448 0.916667 0.52498
22347 1 0.422595 0.75 0.52498
22353 1 0.422595 0.25 0.52498
22897 1 0.408522 0.0833329 0.54996
22898 1 0.436669 0.416667 0.54996
22903 1 0.408522 0.583333 0.54996
22904 1 0.436669 0.916667 0.54996
22349 1 0.450743 0.0833329 0.52498
22350 1 0.47889 0.416667 0.52498
22355 1 0.450743 0.583333 0.52498
22356 1 0.47889 0.916667 0.52498
22900 1 0.464816 0.75 0.54996
22906 1 0.464816 0.25 0.54996
22909 1 0.492963 0.0833329 0.54996
22915 1 0.492963 0.583333 0.54996
22839 3 0.00038843 0.75 0.57494
22841 3 0.0285356 0.0833329 0.57494
22842 1 0.0566827 0.416667 0.57494
22845 3 0.00038843 0.25 0.57494
22847 3 0.0285356 0.583333 0.57494
22848 1 0.0566827 0.916667 0.57494
23390 3 0.014462 0.416667 0.59992
23392 1 0.0426091 0.75 0.59992
23393 3 0.0285356 0.0833329 0.6249
23394 1 0.0566827 0.416667 0.6249
23396 3 0.014462 0.916667 0.59992
23398 1 0.0426091 0.25 0.59992
23399 3 0.0285356 0.583333 0.6249
23400 1 0.0566827 0.916667 0.6249
22851 1 0.0848298 0.75 0.57494
22853 1 0.112977 0.0833329 0.57494
22857 1 0.0848298 0.25 0.57494
22859 1 0.112977 0.583333 0.57494
23401 1 0.0707563 0.0833329 0.59992
23402 1 0.0989034 0.416667 0.59992
23403 1 0.0848298 0.75 0.6249
23404 1 0.127051 0.75 0.59992
23405 1 0.112977 0.0833329 0.6249
23407 1 0.0707563 0.583333 0.59992
23408 1 0.0989034 0.916667 0.59992
23409 1 0.0848298 0.25 0.6249
23410 1 0.127051 0.25 0.59992
23411 1 0.112977 0.583333 0.6249
22854 1 0.141124 0.416667 0.57494
22860 1 0.141124 0.916667 0.57494
22863 1 0.169271 0.75 0.57494
22869 1 0.169271 0.25 0.57494
23406 1 0.141124 0.416667 0.6249
23412 1 0.141124 0.916667 0.6249
23413 1 0.155198 0.0833329 0.59992
23414 1 0.183345 0.416667 0.59992
23415 1 0.169271 0.75 0.6249
23419 1 0.155198 0.583333 0.59992
23420 1 0.183345 0.916667 0.59992
23421 1 0.169271 0.25 0.6249
22865 1 0.197418 0.0833329 0.57494
22866 1 0.225565 0.416667 0.57494
22871 1 0.197418 0.583333 0.57494
22872 1 0.225565 0.916667 0.57494
22875 1 0.253713 0.75 0.57494
22881 1 0.253713 0.25 0.57494
23416 1 0.211492 0.75 0.59992
23417 1 0.197418 0.0833329 0.6249
23418 1 0.225565 0.416667 0.6249
23422 1 0.211492 0.25 0.59992
23423 1 0.197418 0.583333 0.6249
23424 1 0.225565 0.916667 0.6249
23425 1 0.239639 0.0833329 0.59992
23427 1 0.253713 0.75 0.6249
23431 1 0.239639 0.583333 0.59992
23433 1 0.253713 0.25 0.6249
22877 1 0.28186 0.0833329 0.57494
22878 1 0.310007 0.416667 0.57494
22883 1 0.28186 0.583333 0.57494
22884 1 0.310007 0.916667 0.57494
23426 1 0.267786 0.416667 0.59992
23428 1 0.295933 0.75 0.59992
23429 1 0.28186 0.0833329 0.6249
23430 1 0.310007 0.416667 0.6249
23432 1 0.267786 0.916667 0.59992
23434 1 0.295933 0.25 0.59992
23435 1 0.28186 0.583333 0.6249
23436 1 0.310007 0.916667 0.6249
22887 1 0.338154 0.75 0.57494
22889 1 0.366301 0.0833329 0.57494
22893 1 0.338154 0.25 0.57494
22895 1 0.366301 0.583333 0.57494
23437 1 0.32408 0.0833329 0.59992
23438 1 0.352228 0.416667 0.59992
23439 1 0.338154 0.75 0.6249
23440 1 0.380375 0.75 0.59992
23441 1 0.366301 0.0833329 0.6249
23443 1 0.32408 0.583333 0.59992
23444 1 0.352228 0.916667 0.59992
23445 1 0.338154 0.25 0.6249
23446 1 0.380375 0.25 0.59992
23447 1 0.366301 0.583333 0.6249
22890 1 0.394448 0.416667 0.57494
22896 1 0.394448 0.916667 0.57494
22899 1 0.422595 0.75 0.57494
22905 1 0.422595 0.25 0.57494
23442 1 0.394448 0.416667 0.6249
23448 1 0.394448 0.916667 0.6249
23449 1 0.408522 0.0833329 0.59992
23450 1 0.436669 0.416667 0.59992
23451 1 0.422595 0.75 0.6249
23455 1 0.408522 0.583333 0.59992
23456 1 0.436669 0.916667 0.59992
23457 1 0.422595 0.25 0.6249
22901 1 0.450743 0.0833329 0.57494
22902 1 0.47889 0.416667 0.57494
22907 1 0.450743 0.583333 0.57494
22908 1 0.47889 0.916667 0.57494
23452 1 0.464816 0.75 0.59992
23453 1 0.450743 0.0833329 0.6249
23454 1 0.47889 0.416667 0.6249
23458 1 0.464816 0.25 0.59992
23459 1 0.450743 0.583333 0.6249
23460 1 0.47889 0.916667 0.6249
23461 1 0.492963 0.0833329 0.59992
23467 1 0.492963 0.583333 0.59992
23942 3 0.014462 0.416667 0.64988
23944 3 0.0426091 0.75 0.64988
23945 3 0.0285356 0.0833329 0.67486
23946 3 0.0566827 0.416667 0.67486
23948 3 0.014462 0.916667 0.64988
23950 3 0.0426091 0.25 0.64988
23951 3 0.0285356 0.583333 0.67486
23952 3 0.0566827 0.916667 0.67486
23953 1 0.0707563 0.0833329 0.64988
23954 1 0.0989034 0.416667 0.64988
23955 1 0.0848298 0.75 0.67486
23956 1 0.127051 0.75 0.64988
23957 1 0.112977 0.0833329 0.67486
23959 1 0.0707563 0.583333 0.64988
23960 1 0.0989034 0.916667 0.64988
23961 1 0.0848298 0.25 0.67486
23962 1 0.127051 0.25 0.64988
23963 1 0.112977 0.583333 0.67486
23958 1 0.141124 0.416667 0.67486
23964 1 0.141124 0.916667 0.67486
23965 1 0.155198 0.0833329 0.64988
23966 1 0.183345 0.416667 0.64988
23967 1 0.169271 0.75 0.67486
23971 1 0.155198 0.583333 0.64988
23972 1 0.183345 0.916667 0.64988
23973 1 0.169271 0.25 0.67486
23968 1 0.211492 0.75 0.64988
23969 1 0.197418 0.0833329 0.67486
23970 1 0.225565 0.416667 0.67486
23974 1 0.211492 0.25 0.64988
23975 1 0.197418 0.583333 0.67486
23976 1 0.225565 0.916667 0.67486
23977 1 0.239639 0.0833329 0.64988
23979 1 0.253713 0.75 0.67486
23983 1 0.239639 0.583333 0.64988
23985 1 0.253713 0.25 0.67486
23978 1 0.267786 0.416667 0.64988
23980 1 0.295933 0.75 0.64988
23981 1 0.28186 0.0833329 0.67486
23982 1 0.310007 0.416667 0.67486
23984 1 0.267786 0.916667 0.64988
23986 1 0.295933 0.25 0.64988
23987 1 0.28186 0.583333 0.67486
23988 1 0.310007 0.916667 0.67486
23989 1 0.32408 0.0833329 0.64988
23990 1 0.352228 0.416667 0.64988
23991 1 0.338154 0.75 0.67486
23992 1 0.380375 0.75 0.64988
23993 1 0.366301 0.0833329 0.67486
23995 1 0.32408 0.583333 0.64988
23996 1 0.352228 0.916667 0.64988
23997 1 0.338154 0.25 0.67486
23998 1 0.380375 0.25 0.64988
23999 1 0.366301 0.583333 0.67486
23994 1 0.394448 0.416667 0.67486
24000 1 0.394448 0.916667 0.67486
24001 1 0.408522 0.0833329 0.64988
24002 1 0.436669 0.416667 0.64988
24003 1 0.422595 0.75 0.67486
24007 1 0.408522 0.583333 0.64988
24008 1 0.436669 0.916667 0.64988
24009 1 0.422595 0.25 0.67486
24004 1 0.464816 0.75 0.64988
24005 1 0.450743 0.0833329 0.67486
24006 1 0.47889 0.416667 0.67486
24010 1 0.464816 0.25 0.64988
24011 1 0.450743 0.583333 0.67486
24012 1 0.47889 0.916667 0.67486
24013 1 0.492963 0.0833329 0.64988
24019 1 0.492963 0.583333 0.64988
24496 3 0.0426091 0.75 0.69984
24498 3 0.0566827 0.416667 0.72482
24502 3 0.0426091 0.25 0.69984
24504 3 0.0566827 0.916667 0.72482
25066 1 0.127051 0.25 0.7498
25064 1 0.0989034 0.916667 0.7498
25063 3 0.0707563 0.583333 0.7498
25060 1 0.127051 0.75 0.7498
25058 1 0.0989034 0.416667 0.7498
25057 3 0.0707563 0.0833329 0.7498
24505 3 0.0707563 0.0833329 0.69984
24506 1 0.0989034 0.416667 0.69984
24507 1 0.0848298 0.75 0.72482
24508 1 0.127051 0.75 0.69984
24509 1 0.112977 0.0833329 0.72482
24511 3 0.0707563 0.583333 0.69984
24512 1 0.0989034 0.916667 0.69984
24513 1 0.0848298 0.25 0.72482
24514 1 0.127051 0.25 0.69984
24515 1 0.112977 0.583333 0.72482
25076 1 0.183345 0.916667 0.7498
25075 1 0.155198 0.583333 0.7498
25070 1 0.183345 0.416667 0.7498
25069 1 0.155198 0.0833329 0.7498
24510 1 0.141124 0.416667 0.72482
24516 1 0.141124 0.916667 0.72482
24517 1 0.155198 0.0833329 0.69984
24518 1 0.183345 0.416667 0.69984
24519 1 0.169271 0.75 0.72482
24523 1 0.155198 0.583333 0.69984
24524 1 0.183345 0.916667 0.69984
24525 1 0.169271 0.25 0.72482
25087 1 0.239639 0.583333 0.7498
25081 1 0.239639 0.0833329 0.7498
25078 1 0.211492 0.25 0.7498
25072 1 0.211492 0.75 0.7498
24520 1 0.211492 0.75 0.69984
24521 1 0.197418 0.0833329 0.72482
24522 1 0.225565 0.416667 0.72482
24526 1 0.211492 0.25 0.69984
24527 1 0.197418 0.583333 0.72482
24528 1 0.225565 0.916667 0.72482
24529 1 0.239639 0.0833329 0.69984
24531 1 0.253713 0.75 0.72482
24535 1 0.239639 0.583333 0.69984
24537 1 0.253713 0.25 0.72482
25090 1 0.295933 0.25 0.7498
25088 1 0.267786 0.916667 0.7498
25084 1 0.295933 0.75 0.7498
25082 1 0.267786 0.416667 0.7498
24530 1 0.267786 0.416667 0.69984
24532 1 0.295933 0.75 0.69984