ITEM: TIMESTEP
0
ITEM: NUMBER OF ATOMS
2330
ITEM: BOX BOUNDS ss pp ss
-4.0972079223000001e+01 4.1846228795999998e+01
-4.1208122699999999e-01 4.5329187729999996e+00
-4.0492225266000005e+01 4.0323970425000006e+01
ITEM: ATOMS id type xs ys zs
17358 3 0.267786 0.416667 0.0503597
17364 3 0.267786 0.916667 0.0503597
17366 3 0.310007 0.416667 0.0253797
17367 3 0.295933 0.75 0.0503597
17372 3 0.310007 0.916667 0.0253797
17373 3 0.295933 0.25 0.0503597
16827 3 0.380375 0.75 0.00039968
16833 3 0.380375 0.25 0.00039968
17368 3 0.338154 0.75 0.0253797
17369 3 0.32408 0.0833329 0.0503597
17370 1 0.352228 0.416667 0.0503597
17374 3 0.338154 0.25 0.0253797
17375 3 0.32408 0.583333 0.0503597
17376 1 0.352228 0.916667 0.0503597
17377 3 0.366301 0.0833329 0.0253797
17379 1 0.380375 0.75 0.0503597
17383 3 0.366301 0.583333 0.0253797
17385 1 0.380375 0.25 0.0503597
16829 3 0.408522 0.0833329 0.00039968
16830 3 0.436669 0.416667 0.00039968
16835 3 0.408522 0.583333 0.00039968
16836 3 0.436669 0.916667 0.00039968
17378 3 0.394448 0.416667 0.0253797
17380 3 0.422595 0.75 0.0253797
17381 1 0.408522 0.0833329 0.0503597
17382 1 0.436669 0.416667 0.0503597
17384 3 0.394448 0.916667 0.0253797
17386 3 0.422595 0.25 0.0253797
17387 1 0.408522 0.583333 0.0503597
17388 1 0.436669 0.916667 0.0503597
16839 3 0.464816 0.75 0.00039968
16841 3 0.492963 0.0833329 0.00039968
16845 3 0.464816 0.25 0.00039968
16847 3 0.492963 0.583333 0.00039968
17389 3 0.450743 0.0833329 0.0253797
17390 3 0.47889 0.416667 0.0253797
17391 1 0.464816 0.75 0.0503597
17393 1 0.492963 0.0833329 0.0503597
17395 3 0.450743 0.583333 0.0253797
17396 3 0.47889 0.916667 0.0253797
17397 1 0.464816 0.25 0.0503597
17399 1 0.492963 0.583333 0.0503597
17898 3 0.183345 0.416667 0.10032
17904 3 0.183345 0.916667 0.10032
18448 3 0.169271 0.75 0.1253
18454 3 0.169271 0.25 0.1253
17906 3 0.225565 0.416667 0.0753397
17907 3 0.211492 0.75 0.10032
17908 3 0.253713 0.75 0.0753397
17909 3 0.239639 0.0833329 0.10032
17912 3 0.225565 0.916667 0.0753397
17913 3 0.211492 0.25 0.10032
17914 3 0.253713 0.25 0.0753397
17915 3 0.239639 0.583333 0.10032
18457 3 0.197418 0.0833329 0.1253
18458 1 0.225565 0.416667 0.1253
18460 1 0.253713 0.75 0.1253
18463 3 0.197418 0.583333 0.1253
18464 1 0.225565 0.916667 0.1253
18466 1 0.253713 0.25 0.1253
17910 1 0.267786 0.416667 0.10032
17916 1 0.267786 0.916667 0.10032
17917 3 0.28186 0.0833329 0.0753397
17918 1 0.310007 0.416667 0.0753397
17919 1 0.295933 0.75 0.10032
17923 3 0.28186 0.583333 0.0753397
17924 1 0.310007 0.916667 0.0753397
17925 1 0.295933 0.25 0.10032
18469 1 0.28186 0.0833329 0.1253
18470 1 0.310007 0.416667 0.1253
18475 1 0.28186 0.583333 0.1253
18476 1 0.310007 0.916667 0.1253
17920 1 0.338154 0.75 0.0753397
17921 1 0.32408 0.0833329 0.10032
17922 1 0.352228 0.416667 0.10032
17926 1 0.338154 0.25 0.0753397
17927 1 0.32408 0.583333 0.10032
17928 1 0.352228 0.916667 0.10032
17929 1 0.366301 0.0833329 0.0753397
17931 1 0.380375 0.75 0.10032
17935 1 0.366301 0.583333 0.0753397
17937 1 0.380375 0.25 0.10032
18472 1 0.338154 0.75 0.1253
18478 1 0.338154 0.25 0.1253
18481 1 0.366301 0.0833329 0.1253
18487 1 0.366301 0.583333 0.1253
17930 1 0.394448 0.416667 0.0753397
17932 1 0.422595 0.75 0.0753397
17933 1 0.408522 0.0833329 0.10032
17934 1 0.436669 0.416667 0.10032
17936 1 0.394448 0.916667 0.0753397
17938 1 0.422595 0.25 0.0753397
17939 1 0.408522 0.583333 0.10032
17940 1 0.436669 0.916667 0.10032
18482 1 0.394448 0.416667 0.1253
18484 1 0.422595 0.75 0.1253
18488 1 0.394448 0.916667 0.1253
18490 1 0.422595 0.25 0.1253
17941 1 0.450743 0.0833329 0.0753397
17942 1 0.47889 0.416667 0.0753397
17943 1 0.464816 0.75 0.10032
17945 1 0.492963 0.0833329 0.10032
17947 1 0.450743 0.583333 0.0753397
17948 1 0.47889 0.916667 0.0753397
17949 1 0.464816 0.25 0.10032
17951 1 0.492963 0.583333 0.10032
18493 1 0.450743 0.0833329 0.1253
18494 1 0.47889 0.416667 0.1253
18499 1 0.450743 0.583333 0.1253
18500 1 0.47889 0.916667 0.1253
18447 3 0.127051 0.75 0.15028
18453 3 0.127051 0.25 0.15028
18997 3 0.112977 0.0833329 0.17526
19003 3 0.112977 0.583333 0.17526
18449 3 0.155198 0.0833329 0.15028
18450 1 0.183345 0.416667 0.15028
18455 3 0.155198 0.583333 0.15028
18456 1 0.183345 0.916667 0.15028
18998 3 0.141124 0.416667 0.17526
19000 1 0.169271 0.75 0.17526
19004 3 0.141124 0.916667 0.17526
19006 1 0.169271 0.25 0.17526
18459 1 0.211492 0.75 0.15028
18461 1 0.239639 0.0833329 0.15028
18465 1 0.211492 0.25 0.15028
18467 1 0.239639 0.583333 0.15028
19009 1 0.197418 0.0833329 0.17526
19010 1 0.225565 0.416667 0.17526
19012 1 0.253713 0.75 0.17526
19015 1 0.197418 0.583333 0.17526
19016 1 0.225565 0.916667 0.17526
19018 1 0.253713 0.25 0.17526
18462 1 0.267786 0.416667 0.15028
18468 1 0.267786 0.916667 0.15028
18471 1 0.295933 0.75 0.15028
18477 1 0.295933 0.25 0.15028
19021 1 0.28186 0.0833329 0.17526
19022 1 0.310007 0.416667 0.17526
19027 1 0.28186 0.583333 0.17526
19028 1 0.310007 0.916667 0.17526
18473 1 0.32408 0.0833329 0.15028
18474 1 0.352228 0.416667 0.15028
18479 1 0.32408 0.583333 0.15028
18480 1 0.352228 0.916667 0.15028
18483 1 0.380375 0.75 0.15028
18489 1 0.380375 0.25 0.15028
19024 1 0.338154 0.75 0.17526
19030 1 0.338154 0.25 0.17526
19033 1 0.366301 0.0833329 0.17526
19039 1 0.366301 0.583333 0.17526
18485 1 0.408522 0.0833329 0.15028
18486 1 0.436669 0.416667 0.15028
18491 1 0.408522 0.583333 0.15028
18492 1 0.436669 0.916667 0.15028
19034 1 0.394448 0.416667 0.17526
19036 1 0.422595 0.75 0.17526
19040 1 0.394448 0.916667 0.17526
19042 1 0.422595 0.25 0.17526
18495 1 0.464816 0.75 0.15028
18497 1 0.492963 0.0833329 0.15028
18501 1 0.464816 0.25 0.15028
18503 1 0.492963 0.583333 0.15028
19045 1 0.450743 0.0833329 0.17526
19046 1 0.47889 0.416667 0.17526
19051 1 0.450743 0.583333 0.17526
19052 1 0.47889 0.916667 0.17526
18990 3 0.0989034 0.416667 0.20024
18996 3 0.0989034 0.916667 0.20024
18999 3 0.127051 0.75 0.20024
19005 3 0.127051 0.25 0.20024
19540 3 0.0848298 0.75 0.22522
19546 3 0.0848298 0.25 0.22522
19549 3 0.112977 0.0833329 0.22522
19555 3 0.112977 0.583333 0.22522
19001 1 0.155198 0.0833329 0.20024
19002 1 0.183345 0.416667 0.20024
19007 1 0.155198 0.583333 0.20024
19008 1 0.183345 0.916667 0.20024
19550 1 0.141124 0.416667 0.22522
19552 1 0.169271 0.75 0.22522
19556 1 0.141124 0.916667 0.22522
19558 1 0.169271 0.25 0.22522
19011 1 0.211492 0.75 0.20024
19013 1 0.239639 0.0833329 0.20024
19017 1 0.211492 0.25 0.20024
19019 1 0.239639 0.583333 0.20024
19561 1 0.197418 0.0833329 0.22522
19562 1 0.225565 0.416667 0.22522
19564 1 0.253713 0.75 0.22522
19567 1 0.197418 0.583333 0.22522
19568 1 0.225565 0.916667 0.22522
19570 1 0.253713 0.25 0.22522
19014 1 0.267786 0.416667 0.20024
19020 1 0.267786 0.916667 0.20024
19023 1 0.295933 0.75 0.20024
19029 1 0.295933 0.25 0.20024
19573 1 0.28186 0.0833329 0.22522
19574 1 0.310007 0.416667 0.22522
19579 1 0.28186 0.583333 0.22522
19580 1 0.310007 0.916667 0.22522
19025 1 0.32408 0.0833329 0.20024
19026 1 0.352228 0.416667 0.20024
19031 1 0.32408 0.583333 0.20024
19032 1 0.352228 0.916667 0.20024
19035 1 0.380375 0.75 0.20024
19041 1 0.380375 0.25 0.20024
19576 1 0.338154 0.75 0.22522
19582 1 0.338154 0.25 0.22522
19585 1 0.366301 0.0833329 0.22522
19591 1 0.366301 0.583333 0.22522
19037 1 0.408522 0.0833329 0.20024
19038 1 0.436669 0.416667 0.20024
19043 1 0.408522 0.583333 0.20024
19044 1 0.436669 0.916667 0.20024
19586 1 0.394448 0.416667 0.22522
19588 1 0.422595 0.75 0.22522
19592 1 0.394448 0.916667 0.22522
19594 1 0.422595 0.25 0.22522
19047 1 0.464816 0.75 0.20024
19049 1 0.492963 0.0833329 0.20024
19053 1 0.464816 0.25 0.20024
19055 1 0.492963 0.583333 0.20024
19597 1 0.450743 0.0833329 0.22522
19598 1 0.47889 0.416667 0.22522
19603 1 0.450743 0.583333 0.22522
19604 1 0.47889 0.916667 0.22522
20090 3 0.0566827 0.416667 0.27518
20091 3 0.0426091 0.75 0.30016
20096 3 0.0566827 0.916667 0.27518
20097 3 0.0426091 0.25 0.30016
19541 3 0.0707563 0.0833329 0.2502
19542 3 0.0989034 0.416667 0.2502
19547 3 0.0707563 0.583333 0.2502
19548 3 0.0989034 0.916667 0.2502
19551 1 0.127051 0.75 0.2502
19557 1 0.127051 0.25 0.2502
20092 3 0.0848298 0.75 0.27518
20093 3 0.0707563 0.0833329 0.30016
20094 1 0.0989034 0.416667 0.30016
20098 3 0.0848298 0.25 0.27518
20099 3 0.0707563 0.583333 0.30016
20100 1 0.0989034 0.916667 0.30016
20101 1 0.112977 0.0833329 0.27518
20103 1 0.127051 0.75 0.30016
20107 1 0.112977 0.583333 0.27518
20109 1 0.127051 0.25 0.30016
19553 1 0.155198 0.0833329 0.2502
19554 1 0.183345 0.416667 0.2502
19559 1 0.155198 0.583333 0.2502
19560 1 0.183345 0.916667 0.2502
20102 1 0.141124 0.416667 0.27518
20104 1 0.169271 0.75 0.27518
20105 1 0.155198 0.0833329 0.30016
20106 1 0.183345 0.416667 0.30016
20108 1 0.141124 0.916667 0.27518
20110 1 0.169271 0.25 0.27518
20111 1 0.155198 0.583333 0.30016
20112 1 0.183345 0.916667 0.30016
19563 1 0.211492 0.75 0.2502
19565 1 0.239639 0.0833329 0.2502
19569 1 0.211492 0.25 0.2502
19571 1 0.239639 0.583333 0.2502
20113 1 0.197418 0.0833329 0.27518
20114 1 0.225565 0.416667 0.27518
20115 1 0.211492 0.75 0.30016
20116 1 0.253713 0.75 0.27518
20117 1 0.239639 0.0833329 0.30016
20119 1 0.197418 0.583333 0.27518
20120 1 0.225565 0.916667 0.27518
20121 1 0.211492 0.25 0.30016
20122 1 0.253713 0.25 0.27518
20123 1 0.239639 0.583333 0.30016
19566 1 0.267786 0.416667 0.2502
19572 1 0.267786 0.916667 0.2502
19575 1 0.295933 0.75 0.2502
19581 1 0.295933 0.25 0.2502
20118 1 0.267786 0.416667 0.30016
20124 1 0.267786 0.916667 0.30016
20125 1 0.28186 0.0833329 0.27518
20126 1 0.310007 0.416667 0.27518
20127 1 0.295933 0.75 0.30016
20131 1 0.28186 0.583333 0.27518
20132 1 0.310007 0.916667 0.27518
20133 1 0.295933 0.25 0.30016
19577 1 0.32408 0.0833329 0.2502
19578 1 0.352228 0.416667 0.2502
19583 1 0.32408 0.583333 0.2502
19584 1 0.352228 0.916667 0.2502
19587 1 0.380375 0.75 0.2502
19593 1 0.380375 0.25 0.2502
20128 1 0.338154 0.75 0.27518
20129 1 0.32408 0.0833329 0.30016
20130 1 0.352228 0.416667 0.30016
20134 1 0.338154 0.25 0.27518
20135 1 0.32408 0.583333 0.30016
20136 1 0.352228 0.916667 0.30016
20137 1 0.366301 0.0833329 0.27518
20139 1 0.380375 0.75 0.30016
20143 1 0.366301 0.583333 0.27518
20145 1 0.380375 0.25 0.30016
19589 1 0.408522 0.0833329 0.2502
19590 1 0.436669 0.416667 0.2502
19595 1 0.408522 0.583333 0.2502
19596 1 0.436669 0.916667 0.2502
20138 1 0.394448 0.416667 0.27518
20140 1 0.422595 0.75 0.27518
20141 1 0.408522 0.0833329 0.30016
20142 1 0.436669 0.416667 0.30016
20144 1 0.394448 0.916667 0.27518
20146 1 0.422595 0.25 0.27518
20147 1 0.408522 0.583333 0.30016
20148 1 0.436669 0.916667 0.30016
19599 1 0.464816 0.75 0.2502
19601 1 0.492963 0.0833329 0.2502
19605 1 0.464816 0.25 0.2502
19607 1 0.492963 0.583333 0.2502
20149 1 0.450743 0.0833329 0.27518
20150 1 0.47889 0.416667 0.27518
20151 1 0.464816 0.75 0.30016
20153 1 0.492963 0.0833329 0.30016
20155 1 0.450743 0.583333 0.27518
20156 1 0.47889 0.916667 0.27518
20157 1 0.464816 0.25 0.30016
20159 1 0.492963 0.583333 0.30016
21200 1 0.0566827 0.916667 0.3751
21199 3 0.0285356 0.583333 0.3751
21194 1 0.0566827 0.416667 0.3751
21193 3 0.0285356 0.0833329 0.3751
20649 3 0.0426091 0.25 0.35012
20648 3 0.0566827 0.916667 0.32514
20647 3 0.0285356 0.583333 0.32514
20643 3 0.0426091 0.75 0.35012
20642 3 0.0566827 0.416667 0.32514
20641 3 0.0285356 0.0833329 0.32514
20634 3 0.014462 0.416667 0.35012
20640 3 0.014462 0.916667 0.35012
21211 1 0.112977 0.583333 0.3751
21205 1 0.112977 0.0833329 0.3751
21202 1 0.0848298 0.25 0.3751
21196 1 0.0848298 0.75 0.3751
20661 1 0.127051 0.25 0.35012
20659 1 0.112977 0.583333 0.32514
20655 1 0.127051 0.75 0.35012
20653 1 0.112977 0.0833329 0.32514
20652 1 0.0989034 0.916667 0.35012
20651 1 0.0707563 0.583333 0.35012
20650 1 0.0848298 0.25 0.32514
20646 1 0.0989034 0.416667 0.35012
20645 1 0.0707563 0.0833329 0.35012
20644 1 0.0848298 0.75 0.32514
21214 1 0.169271 0.25 0.3751
21212 1 0.141124 0.916667 0.3751
21208 1 0.169271 0.75 0.3751
21206 1 0.141124 0.416667 0.3751
20664 1 0.183345 0.916667 0.35012
20663 1 0.155198 0.583333 0.35012
20662 1 0.169271 0.25 0.32514
20660 1 0.141124 0.916667 0.32514
20658 1 0.183345 0.416667 0.35012
20657 1 0.155198 0.0833329 0.35012
20656 1 0.169271 0.75 0.32514
20654 1 0.141124 0.416667 0.32514
21226 1 0.253713 0.25 0.3751
21224 1 0.225565 0.916667 0.3751
21223 1 0.197418 0.583333 0.3751
21220 1 0.253713 0.75 0.3751
21218 1 0.225565 0.416667 0.3751
21217 1 0.197418 0.0833329 0.3751
20675 1 0.239639 0.583333 0.35012
20674 1 0.253713 0.25 0.32514
20673 1 0.211492 0.25 0.35012
20672 1 0.225565 0.916667 0.32514
20671 1 0.197418 0.583333 0.32514
20669 1 0.239639 0.0833329 0.35012
20668 1 0.253713 0.75 0.32514
20667 1 0.211492 0.75 0.35012
20666 1 0.225565 0.416667 0.32514
20665 1 0.197418 0.0833329 0.32514
21236 1 0.310007 0.916667 0.3751
21235 1 0.28186 0.583333 0.3751
21230 1 0.310007 0.416667 0.3751
21229 1 0.28186 0.0833329 0.3751
20685 1 0.295933 0.25 0.35012
20684 1 0.310007 0.916667 0.32514
20683 1 0.28186 0.583333 0.32514
20679 1 0.295933 0.75 0.35012
20678 1 0.310007 0.416667 0.32514
20677 1 0.28186 0.0833329 0.32514
20676 1 0.267786 0.916667 0.35012
20670 1 0.267786 0.416667 0.35012
21247 1 0.366301 0.583333 0.3751
21241 1 0.366301 0.0833329 0.3751
21238 1 0.338154 0.25 0.3751
21232 1 0.338154 0.75 0.3751
20697 1 0.380375 0.25 0.35012
20695 1 0.366301 0.583333 0.32514
20691 1 0.380375 0.75 0.35012
20689 1 0.366301 0.0833329 0.32514
20688 1 0.352228 0.916667 0.35012
20687 1 0.32408 0.583333 0.35012
20686 1 0.338154 0.25 0.32514
20682 1 0.352228 0.416667 0.35012
20681 1 0.32408 0.0833329 0.35012
20680 1 0.338154 0.75 0.32514
21250 1 0.422595 0.25 0.3751
21248 1 0.394448 0.916667 0.3751
21244 1 0.422595 0.75 0.3751
21242 1 0.394448 0.416667 0.3751
20700 1 0.436669 0.916667 0.35012
20699 1 0.408522 0.583333 0.35012
20698 1 0.422595 0.25 0.32514
20696 1 0.394448 0.916667 0.32514
20694 1 0.436669 0.416667 0.35012
20693 1 0.408522 0.0833329 0.35012
20692 1 0.422595 0.75 0.32514
20690 1 0.394448 0.416667 0.32514
21260 1 0.47889 0.916667 0.3751
21259 1 0.450743 0.583333 0.3751
21254 1 0.47889 0.416667 0.3751
21253 1 0.450743 0.0833329 0.3751
20711 1 0.492963 0.583333 0.35012
20709 1 0.464816 0.25 0.35012
20708 1 0.47889 0.916667 0.32514
20707 1 0.450743 0.583333 0.32514
20705 1 0.492963 0.0833329 0.35012
20703 1 0.464816 0.75 0.35012
20702 1 0.47889 0.416667 0.32514
20701 1 0.450743 0.0833329 0.32514
21752 1 0.0566827 0.916667 0.42506
21751 3 0.0285356 0.583333 0.42506
21746 1 0.0566827 0.416667 0.42506
21745 3 0.0285356 0.0833329 0.42506
21742 3 0.00038843 0.25 0.42506
21736 3 0.00038843 0.75 0.42506
21201 1 0.0426091 0.25 0.40008
21195 1 0.0426091 0.75 0.40008
21192 3 0.014462 0.916667 0.40008
21186 3 0.014462 0.416667 0.40008
21763 1 0.112977 0.583333 0.42506
21757 1 0.112977 0.0833329 0.42506
21754 1 0.0848298 0.25 0.42506
21748 1 0.0848298 0.75 0.42506
21213 1 0.127051 0.25 0.40008
21207 1 0.127051 0.75 0.40008
21204 1 0.0989034 0.916667 0.40008
21203 1 0.0707563 0.583333 0.40008
21198 1 0.0989034 0.416667 0.40008
21197 1 0.0707563 0.0833329 0.40008
21766 1 0.169271 0.25 0.42506
21764 1 0.141124 0.916667 0.42506
21760 1 0.169271 0.75 0.42506
21758 1 0.141124 0.416667 0.42506
21216 1 0.183345 0.916667 0.40008
21215 1 0.155198 0.583333 0.40008
21210 1 0.183345 0.416667 0.40008
21209 1 0.155198 0.0833329 0.40008
21778 1 0.253713 0.25 0.42506
21776 1 0.225565 0.916667 0.42506
21775 1 0.197418 0.583333 0.42506
21772 1 0.253713 0.75 0.42506
21770 1 0.225565 0.416667 0.42506
21769 1 0.197418 0.0833329 0.42506
21227 1 0.239639 0.583333 0.40008
21225 1 0.211492 0.25 0.40008
21221 1 0.239639 0.0833329 0.40008
21219 1 0.211492 0.75 0.40008
21788 1 0.310007 0.916667 0.42506
21787 1 0.28186 0.583333 0.42506
21782 1 0.310007 0.416667 0.42506
21781 1 0.28186 0.0833329 0.42506
21237 1 0.295933 0.25 0.40008
21231 1 0.295933 0.75 0.40008
21228 1 0.267786 0.916667 0.40008
21222 1 0.267786 0.416667 0.40008
21799 1 0.366301 0.583333 0.42506
21793 1 0.366301 0.0833329 0.42506
21790 1 0.338154 0.25 0.42506
21784 1 0.338154 0.75 0.42506
21249 1 0.380375 0.25 0.40008
21243 1 0.380375 0.75 0.40008
21240 1 0.352228 0.916667 0.40008
21239 1 0.32408 0.583333 0.40008
21234 1 0.352228 0.416667 0.40008
21233 1 0.32408 0.0833329 0.40008
21802 1 0.422595 0.25 0.42506
21800 1 0.394448 0.916667 0.42506
21796 1 0.422595 0.75 0.42506
21794 1 0.394448 0.416667 0.42506
21252 1 0.436669 0.916667 0.40008
21251 1 0.408522 0.583333 0.40008
21246 1 0.436669 0.416667 0.40008
21245 1 0.408522 0.0833329 0.40008
21812 1 0.47889 0.916667 0.42506
21811 1 0.450743 0.583333 0.42506
21806 1 0.47889 0.416667 0.42506
21805 1 0.450743 0.0833329 0.42506
21263 1 0.492963 0.583333 0.40008
21261 1 0.464816 0.25 0.40008
21257 1 0.492963 0.0833329 0.40008
21255 1 0.464816 0.75 0.40008
21753 1 0.0426091 0.25 0.45004
21747 1 0.0426091 0.75 0.45004
21744 3 0.014462 0.916667 0.45004
21738 3 0.014462 0.416667 0.45004
22288 3 0.00038843 0.75 0.47502
22290 3 0.014462 0.416667 0.5
22294 3 0.00038843 0.25 0.47502
22296 3 0.014462 0.916667 0.5
22297 3 0.0285356 0.0833329 0.47502
22298 1 0.0566827 0.416667 0.47502
22299 1 0.0426091 0.75 0.5
22303 3 0.0285356 0.583333 0.47502
22304 1 0.0566827 0.916667 0.47502
22305 1 0.0426091 0.25 0.5
21765 1 0.127051 0.25 0.45004
21759 1 0.127051 0.75 0.45004
21756 1 0.0989034 0.916667 0.45004
21755 1 0.0707563 0.583333 0.45004
21750 1 0.0989034 0.416667 0.45004
21749 1 0.0707563 0.0833329 0.45004
22300 1 0.0848298 0.75 0.47502
22301 1 0.0707563 0.0833329 0.5
22302 1 0.0989034 0.416667 0.5
22306 1 0.0848298 0.25 0.47502
22307 1 0.0707563 0.583333 0.5
22308 1 0.0989034 0.916667 0.5
22309 1 0.112977 0.0833329 0.47502
22311 1 0.127051 0.75 0.5
22315 1 0.112977 0.583333 0.47502
22317 1 0.127051 0.25 0.5
21768 1 0.183345 0.916667 0.45004
21767 1 0.155198 0.583333 0.45004
21762 1 0.183345 0.416667 0.45004
21761 1 0.155198 0.0833329 0.45004
22310 1 0.141124 0.416667 0.47502
22312 1 0.169271 0.75 0.47502
22313 1 0.155198 0.0833329 0.5
22314 1 0.183345 0.416667 0.5
22316 1 0.141124 0.916667 0.47502
22318 1 0.169271 0.25 0.47502
22319 1 0.155198 0.583333 0.5
22320 1 0.183345 0.916667 0.5
21779 1 0.239639 0.583333 0.45004
21777 1 0.211492 0.25 0.45004
21773 1 0.239639 0.0833329 0.45004
21771 1 0.211492 0.75 0.45004
22321 1 0.197418 0.0833329 0.47502
22322 1 0.225565 0.416667 0.47502
22323 1 0.211492 0.75 0.5
22324 1 0.253713 0.75 0.47502
22325 1 0.239639 0.0833329 0.5
22327 1 0.197418 0.583333 0.47502
22328 1 0.225565 0.916667 0.47502
22329 1 0.211492 0.25 0.5
22330 1 0.253713 0.25 0.47502
22331 1 0.239639 0.583333 0.5
21789 1 0.295933 0.25 0.45004
21783 1 0.295933 0.75 0.45004
21780 1 0.267786 0.916667 0.45004
21774 1 0.267786 0.416667 0.45004
22326 1 0.267786 0.416667 0.5
22332 1 0.267786 0.916667 0.5
22333 1 0.28186 0.0833329 0.47502
22334 1 0.310007 0.416667 0.47502
22335 1 0.295933 0.75 0.5
22339 1 0.28186 0.583333 0.47502
22340 1 0.310007 0.916667 0.47502
22341 1 0.295933 0.25 0.5
21801 1 0.380375 0.25 0.45004
21795 1 0.380375 0.75 0.45004
21792 1 0.352228 0.916667 0.45004
21791 1 0.32408 0.583333 0.45004
21786 1 0.352228 0.416667 0.45004
21785 1 0.32408 0.0833329 0.45004
22336 1 0.338154 0.75 0.47502
22337 1 0.32408 0.0833329 0.5
22338 1 0.352228 0.416667 0.5
22342 1 0.338154 0.25 0.47502
22343 1 0.32408 0.583333 0.5
22344 1 0.352228 0.916667 0.5
22345 1 0.366301 0.0833329 0.47502
22347 1 0.380375 0.75 0.5
22351 1 0.366301 0.583333 0.47502
22353 1 0.380375 0.25 0.5
21804 1 0.436669 0.916667 0.45004
21803 1 0.408522 0.583333 0.45004
21798 1 0.436669 0.416667 0.45004
21797 1 0.408522 0.0833329 0.45004
22346 1 0.394448 0.416667 0.47502
22348 1 0.422595 0.75 0.47502
22349 1 0.408522 0.0833329 0.5
22350 1 0.436669 0.416667 0.5
22352 1 0.394448 0.916667 0.47502
22354 1 0.422595 0.25 0.47502
22355 1 0.408522 0.583333 0.5
22356 1 0.436669 0.916667 0.5
21815 1 0.492963 0.583333 0.45004
21813 1 0.464816 0.25 0.45004
21809 1 0.492963 0.0833329 0.45004
21807 1 0.464816 0.75 0.45004
22357 1 0.450743 0.0833329 0.47502
22358 1 0.47889 0.416667 0.47502
22359 1 0.464816 0.75 0.5
22361 1 0.492963 0.0833329 0.5
22363 1 0.450743 0.583333 0.47502
22364 1 0.47889 0.916667 0.47502
22365 1 0.464816 0.25 0.5
22367 1 0.492963 0.583333 0.5
22840 3 0.00038843 0.75 0.52498
22842 3 0.014462 0.416667 0.54996
22846 3 0.00038843 0.25 0.52498
22848 3 0.014462 0.916667 0.54996
22849 3 0.0285356 0.0833329 0.52498
22850 1 0.0566827 0.416667 0.52498
22851 1 0.0426091 0.75 0.54996
22855 3 0.0285356 0.583333 0.52498
22856 1 0.0566827 0.916667 0.52498
22857 1 0.0426091 0.25 0.54996
22852 1 0.0848298 0.75 0.52498
22853 1 0.0707563 0.0833329 0.54996
22854 1 0.0989034 0.416667 0.54996
22858 1 0.0848298 0.25 0.52498
22859 1 0.0707563 0.583333 0.54996
22860 1 0.0989034 0.916667 0.54996
22861 1 0.112977 0.0833329 0.52498
22863 1 0.127051 0.75 0.54996
22867 1 0.112977 0.583333 0.52498
22869 1 0.127051 0.25 0.54996
22862 1 0.141124 0.416667 0.52498
22864 1 0.169271 0.75 0.52498
22865 1 0.155198 0.0833329 0.54996
22866 1 0.183345 0.416667 0.54996
22868 1 0.141124 0.916667 0.52498
22870 1 0.169271 0.25 0.52498
22871 1 0.155198 0.583333 0.54996
22872 1 0.183345 0.916667 0.54996
22873 1 0.197418 0.0833329 0.52498
22874 1 0.225565 0.416667 0.52498
22875 1 0.211492 0.75 0.54996
22876 1 0.253713 0.75 0.52498
22877 1 0.239639 0.0833329 0.54996
22879 1 0.197418 0.583333 0.52498
22880 1 0.225565 0.916667 0.52498
22881 1 0.211492 0.25 0.54996
22882 1 0.253713 0.25 0.52498
22883 1 0.239639 0.583333 0.54996
22878 1 0.267786 0.416667 0.54996
22884 1 0.267786 0.916667 0.54996
22885 1 0.28186 0.0833329 0.52498
22886 1 0.310007 0.416667 0.52498
22887 1 0.295933 0.75 0.54996
22891 1 0.28186 0.583333 0.52498
22892 1 0.310007 0.916667 0.52498
22893 1 0.295933 0.25 0.54996
22888 1 0.338154 0.75 0.52498
22889 1 0.32408 0.0833329 0.54996
22890 1 0.352228 0.416667 0.54996
22894 1 0.338154 0.25 0.52498
22895 1 0.32408 0.583333 0.54996
22896 1 0.352228 0.916667 0.54996
22897 1 0.366301 0.0833329 0.52498
22899 1 0.380375 0.75 0.54996
22903 1 0.366301 0.583333 0.52498
22905 1 0.380375 0.25 0.54996
22898 1 0.394448 0.416667 0.52498
22900 1 0.422595 0.75 0.52498
22901 1 0.408522 0.0833329 0.54996
22902 1 0.436669 0.416667 0.54996
22904 1 0.394448 0.916667 0.52498
22906 1 0.422595 0.25 0.52498
22907 1 0.408522 0.583333 0.54996
22908 1 0.436669 0.916667 0.54996
22909 1 0.450743 0.0833329 0.52498
22910 1 0.47889 0.416667 0.52498
22911 1 0.464816 0.75 0.54996
22913 1 0.492963 0.0833329 0.54996
22915 1 0.450743 0.583333 0.52498
22916 1 0.47889 0.916667 0.52498
22917 1 0.464816 0.25 0.54996
22919 1 0.492963 0.583333 0.54996
23392 3 0.00038843 0.75 0.57494
23394 3 0.014462 0.416667 0.59992
23398 3 0.00038843 0.25 0.57494
23400 3 0.014462 0.916667 0.59992
23401 3 0.0285356 0.0833329 0.57494
23402 1 0.0566827 0.416667 0.57494
23403 1 0.0426091 0.75 0.59992
23407 3 0.0285356 0.583333 0.57494
23408 1 0.0566827 0.916667 0.57494
23409 1 0.0426091 0.25 0.59992
23953 3 0.0285356 0.0833329 0.6249
23954 1 0.0566827 0.416667 0.6249
23959 3 0.0285356 0.583333 0.6249
23960 1 0.0566827 0.916667 0.6249
23404 1 0.0848298 0.75 0.57494
23405 1 0.0707563 0.0833329 0.59992
23406 1 0.0989034 0.416667 0.59992
23410 1 0.0848298 0.25 0.57494
23411 1 0.0707563 0.583333 0.59992
23412 1 0.0989034 0.916667 0.59992
23413 1 0.112977 0.0833329 0.57494
23415 1 0.127051 0.75 0.59992
23419 1 0.112977 0.583333 0.57494
23421 1 0.127051 0.25 0.59992
23956 1 0.0848298 0.75 0.6249
23962 1 0.0848298 0.25 0.6249
23965 1 0.112977 0.0833329 0.6249
23971 1 0.112977 0.583333 0.6249
23414 1 0.141124 0.416667 0.57494
23416 1 0.169271 0.75 0.57494
23417 1 0.155198 0.0833329 0.59992
23418 1 0.183345 0.416667 0.59992
23420 1 0.141124 0.916667 0.57494
23422 1 0.169271 0.25 0.57494
23423 1 0.155198 0.583333 0.59992
23424 1 0.183345 0.916667 0.59992
23966 1 0.141124 0.416667 0.6249
23968 1 0.169271 0.75 0.6249
23972 1 0.141124 0.916667 0.6249
23974 1 0.169271 0.25 0.6249
23425 1 0.197418 0.0833329 0.57494
23426 1 0.225565 0.416667 0.57494
23427 1 0.211492 0.75 0.59992
23428 1 0.253713 0.75 0.57494
23429 1 0.239639 0.0833329 0.59992
23431 1 0.197418 0.583333 0.57494
23432 1 0.225565 0.916667 0.57494
23433 1 0.211492 0.25 0.59992
23434 1 0.253713 0.25 0.57494
23435 1 0.239639 0.583333 0.59992
23977 1 0.197418 0.0833329 0.6249
23978 1 0.225565 0.416667 0.6249
23980 1 0.253713 0.75 0.6249
23983 1 0.197418 0.583333 0.6249
23984 1 0.225565 0.916667 0.6249
23986 1 0.253713 0.25 0.6249
23430 1 0.267786 0.416667 0.59992
23436 1 0.267786 0.916667 0.59992
23437 1 0.28186 0.0833329 0.57494
23438 1 0.310007 0.416667 0.57494
23439 1 0.295933 0.75 0.59992
23443 1 0.28186 0.583333 0.57494
23444 1 0.310007 0.916667 0.57494
23445 1 0.295933 0.25 0.59992
23989 1 0.28186 0.0833329 0.6249
23990 1 0.310007 0.416667 0.6249
23995 1 0.28186 0.583333 0.6249
23996 1 0.310007 0.916667 0.6249
23440 1 0.338154 0.75 0.57494
23441 1 0.32408 0.0833329 0.59992
23442 1 0.352228 0.416667 0.59992
23446 1 0.338154 0.25 0.57494
23447 1 0.32408 0.583333 0.59992
23448 1 0.352228 0.916667 0.59992
23449 1 0.366301 0.0833329 0.57494
23451 1 0.380375 0.75 0.59992
23455 1 0.366301 0.583333 0.57494
23457 1 0.380375 0.25 0.59992
23992 1 0.338154 0.75 0.6249
23998 1 0.338154 0.25 0.6249
24001 1 0.366301 0.0833329 0.6249
24007 1 0.366301 0.583333 0.6249
23450 1 0.394448 0.416667 0.57494
23452 1 0.422595 0.75 0.57494
23453 1 0.408522 0.0833329 0.59992
23454 1 0.436669 0.416667 0.59992
23456 1 0.394448 0.916667 0.57494
23458 1 0.422595 0.25 0.57494
23459 1 0.408522 0.583333 0.59992
23460 1 0.436669 0.916667 0.59992
24002 1 0.394448 0.416667 0.6249
24004 1 0.422595 0.75 0.6249
24008 1 0.394448 0.916667 0.6249
24010 1 0.422595 0.25 0.6249
23461 1 0.450743 0.0833329 0.57494
23462 1 0.47889 0.416667 0.57494
23463 1 0.464816 0.75 0.59992
23465 1 0.492963 0.0833329 0.59992
23467 1 0.450743 0.583333 0.57494
23468 1 0.47889 0.916667 0.57494
23469 1 0.464816 0.25 0.59992
23471 1 0.492963 0.583333 0.59992
24013 1 0.450743 0.0833329 0.6249
24014 1 0.47889 0.416667 0.6249
24019 1 0.450743 0.583333 0.6249
24020 1 0.47889 0.916667 0.6249
23946 3 0.014462 0.416667 0.64988
23952 3 0.014462 0.916667 0.64988
23955 3 0.0426091 0.75 0.64988
23961 3 0.0426091 0.25 0.64988
24505 3 0.0285356 0.0833329 0.67486
24506 3 0.0566827 0.416667 0.67486
24511 3 0.0285356 0.583333 0.67486
24512 3 0.0566827 0.916667 0.67486
23957 1 0.0707563 0.0833329 0.64988
23958 1 0.0989034 0.416667 0.64988
23963 1 0.0707563 0.583333 0.64988
23964 1 0.0989034 0.916667 0.64988
23967 1 0.127051 0.75 0.64988
23973 1 0.127051 0.25 0.64988
24508 1 0.0848298 0.75 0.67486
24514 1 0.0848298 0.25 0.67486
24517 1 0.112977 0.0833329 0.67486
24523 1 0.112977 0.583333 0.67486
23969 1 0.155198 0.0833329 0.64988
23970 1 0.183345 0.416667 0.64988
23975 1 0.155198 0.583333 0.64988
23976 1 0.183345 0.916667 0.64988
24518 1 0.141124 0.416667 0.67486
24520 1 0.169271 0.75 0.67486
24524 1 0.141124 0.916667 0.67486
24526 1 0.169271 0.25 0.67486
23979 1 0.211492 0.75 0.64988
23981 1 0.239639 0.0833329 0.64988
23985 1 0.211492 0.25 0.64988
23987 1 0.239639 0.583333 0.64988
24529 1 0.197418 0.0833329 0.67486
24530 1 0.225565 0.416667 0.67486
24532 1 0.253713 0.75 0.67486
24535 1 0.197418 0.583333 0.67486
24536 1 0.225565 0.916667 0.67486
24538 1 0.253713 0.25 0.67486
23982 1 0.267786 0.416667 0.64988
23988 1 0.267786 0.916667 0.64988
23991 1 0.295933 0.75 0.64988
23997 1 0.295933 0.25 0.64988
24541 1 0.28186 0.0833329 0.67486
24542 1 0.310007 0.416667 0.67486
24547 1 0.28186 0.583333 0.67486
24548 1 0.310007 0.916667 0.67486
24559 1 0.366301 0.583333 0.67486
23993 1 0.32408 0.0833329 0.64988
23994 1 0.352228 0.416667 0.64988
23999 1 0.32408 0.583333 0.64988
24000 1 0.352228 0.916667 0.64988
24003 1 0.380375 0.75 0.64988
24009 1 0.380375 0.25 0.64988
24544 1 0.338154 0.75 0.67486
24550 1 0.338154 0.25 0.67486
24553 1 0.366301 0.0833329 0.67486
24562 1 0.422595 0.25 0.67486
24560 1 0.394448 0.916667 0.67486
24005 1 0.408522 0.0833329 0.64988
24006 1 0.436669 0.416667 0.64988
24011 1 0.408522 0.583333 0.64988
24012 1 0.436669 0.916667 0.64988
24554 1 0.394448 0.416667 0.67486
24556 1 0.422595 0.75 0.67486
24015 1 0.464816 0.75 0.64988
24017 1 0.492963 0.0833329 0.64988
24021 1 0.464816 0.25 0.64988
24023 1 0.492963 0.583333 0.64988
24565 1 0.450743 0.0833329 0.67486
24566 1 0.47889 0.416667 0.67486
24571 1 0.450743 0.583333 0.67486
24572 1 0.47889 0.916667 0.67486
25064 3 0.0566827 0.916667 0.72482
25058 3 0.0566827 0.416667 0.72482
24507 3 0.0426091 0.75 0.69984
24513 3 0.0426091 0.25 0.69984
25077 1 0.127051 0.25 0.7498
25075 1 0.112977 0.583333 0.72482
25071 1 0.127051 0.75 0.7498
25069 1 0.112977 0.0833329 0.72482
25068 1 0.0989034 0.916667 0.7498
25067 3 0.0707563 0.583333 0.7498
25066 3 0.0848298 0.25 0.72482
25062 1 0.0989034 0.416667 0.7498
25061 3 0.0707563 0.0833329 0.7498
25060 3 0.0848298 0.75 0.72482
24509 3 0.0707563 0.0833329 0.69984
24510 1 0.0989034 0.416667 0.69984
24515 3 0.0707563 0.583333 0.69984
24516 1 0.0989034 0.916667 0.69984
24519 1 0.127051 0.75 0.69984
24525 1 0.127051 0.25 0.69984
25080 1 0.183345 0.916667 0.7498
25079 1 0.155198 0.583333 0.7498
25078 1 0.169271 0.25 0.72482
25076 1 0.141124 0.916667 0.72482
25074 1 0.183345 0.416667 0.7498
25073 1 0.155198 0.0833329 0.7498
25072 1 0.169271 0.75 0.72482
25070 1 0.141124 0.416667 0.72482
24521 1 0.155198 0.0833329 0.69984
24522 1 0.183345 0.416667 0.69984
24527 1 0.155198 0.583333 0.69984
24528 1 0.183345 0.916667 0.69984
25091 1 0.239639 0.583333 0.7498
25090 1 0.253713 0.25 0.72482
25089 1 0.211492 0.25 0.7498
25088 1 0.225565 0.916667 0.72482
25087 1 0.197418 0.583333 0.72482
25085 1 0.239639 0.0833329 0.7498
25084 1 0.253713 0.75 0.72482
25083 1 0.211492 0.75 0.7498
25082 1 0.225565 0.416667 0.72482
25081 1 0.197418 0.0833329 0.72482
24531 1 0.211492 0.75 0.69984
24533 1 0.239639 0.0833329 0.69984
24537 1 0.211492 0.25 0.69984
24539 1 0.239639 0.583333 0.69984
25101 1 0.295933 0.25 0.7498
25100 1 0.310007 0.916667 0.72482
25099 1 0.28186 0.583333 0.72482
25095 1 0.295933 0.75 0.7498
25094 1 0.310007 0.416667 0.72482
25093 1 0.28186 0.0833329 0.72482