ITEM: TIMESTEP
0
ITEM: NUMBER OF ATOMS
2358
ITEM: BOX BOUNDS ss pp ss
-4.1409160050000004e+01 4.1409147969000003e+01
-4.1208122699999999e-01 4.5329187729999996e+00
-4.1669852686000006e+01 4.1165132866000000e+01
ITEM: ATOMS id type xs ys zs
17356 3 0.295933 0.75 0.0491324
17362 3 0.295933 0.25 0.0491324
16815 3 0.338154 0.75 0.0247612
16817 3 0.366301 0.0833329 0.0247612
16821 3 0.338154 0.25 0.0247612
16823 3 0.366301 0.583333 0.0247612
17365 3 0.32408 0.0833329 0.0491324
17366 3 0.352228 0.416667 0.0491324
17368 3 0.380375 0.75 0.0491324
17371 3 0.32408 0.583333 0.0491324
17372 3 0.352228 0.916667 0.0491324
17374 3 0.380375 0.25 0.0491324
16818 3 0.394448 0.416667 0.0247612
16824 3 0.394448 0.916667 0.0247612
16827 3 0.422595 0.75 0.0247612
16833 3 0.422595 0.25 0.0247612
17377 1 0.408522 0.0833329 0.0491324
17378 1 0.436669 0.416667 0.0491324
17383 1 0.408522 0.583333 0.0491324
17384 1 0.436669 0.916667 0.0491324
16828 3 0.464816 0.75 0.00038994
16829 3 0.450743 0.0833329 0.0247612
16830 3 0.47889 0.416667 0.0247612
16834 3 0.464816 0.25 0.00038994
16835 3 0.450743 0.583333 0.0247612
16836 3 0.47889 0.916667 0.0247612
17380 1 0.464816 0.75 0.0491324
17386 1 0.464816 0.25 0.0491324
16837 3 0.492963 0.0833329 0.00038994
16843 3 0.492963 0.583333 0.00038994
17389 1 0.492963 0.0833329 0.0491324
17395 1 0.492963 0.583333 0.0491324
17895 3 0.169271 0.75 0.122246
17901 3 0.169271 0.25 0.122246
17355 3 0.253713 0.75 0.0735036
17361 3 0.253713 0.25 0.0735036
17896 3 0.211492 0.75 0.0978748
17897 3 0.197418 0.0833329 0.122246
17898 3 0.225565 0.416667 0.122246
17902 3 0.211492 0.25 0.0978748
17903 3 0.197418 0.583333 0.122246
17904 3 0.225565 0.916667 0.122246
17905 3 0.239639 0.0833329 0.0978748
17907 1 0.253713 0.75 0.122246
17911 3 0.239639 0.583333 0.0978748
17913 1 0.253713 0.25 0.122246
17357 3 0.28186 0.0833329 0.0735036
17358 3 0.310007 0.416667 0.0735036
17363 3 0.28186 0.583333 0.0735036
17364 3 0.310007 0.916667 0.0735036
17906 3 0.267786 0.416667 0.0978748
17908 1 0.295933 0.75 0.0978748
17909 1 0.28186 0.0833329 0.122246
17910 1 0.310007 0.416667 0.122246
17912 3 0.267786 0.916667 0.0978748
17914 1 0.295933 0.25 0.0978748
17915 1 0.28186 0.583333 0.122246
17916 1 0.310007 0.916667 0.122246
17367 1 0.338154 0.75 0.0735036
17369 1 0.366301 0.0833329 0.0735036
17373 1 0.338154 0.25 0.0735036
17375 1 0.366301 0.583333 0.0735036
17917 1 0.32408 0.0833329 0.0978748
17918 1 0.352228 0.416667 0.0978748
17919 1 0.338154 0.75 0.122246
17920 1 0.380375 0.75 0.0978748
17921 1 0.366301 0.0833329 0.122246
17923 1 0.32408 0.583333 0.0978748
17924 1 0.352228 0.916667 0.0978748
17925 1 0.338154 0.25 0.122246
17926 1 0.380375 0.25 0.0978748
17927 1 0.366301 0.583333 0.122246
17370 1 0.394448 0.416667 0.0735036
17376 1 0.394448 0.916667 0.0735036
17379 1 0.422595 0.75 0.0735036
17385 1 0.422595 0.25 0.0735036
17922 1 0.394448 0.416667 0.122246
17928 1 0.394448 0.916667 0.122246
17929 1 0.408522 0.0833329 0.0978748
17930 1 0.436669 0.416667 0.0978748
17931 1 0.422595 0.75 0.122246
17935 1 0.408522 0.583333 0.0978748
17936 1 0.436669 0.916667 0.0978748
17937 1 0.422595 0.25 0.122246
17381 1 0.450743 0.0833329 0.0735036
17382 1 0.47889 0.416667 0.0735036
17387 1 0.450743 0.583333 0.0735036
17388 1 0.47889 0.916667 0.0735036
17932 1 0.464816 0.75 0.0978748
17933 1 0.450743 0.0833329 0.122246
17934 1 0.47889 0.416667 0.122246
17938 1 0.464816 0.25 0.0978748
17939 1 0.450743 0.583333 0.122246
17940 1 0.47889 0.916667 0.122246
17941 1 0.492963 0.0833329 0.0978748
17947 1 0.492963 0.583333 0.0978748
18438 3 0.141124 0.416667 0.170988
18444 3 0.141124 0.916667 0.170988
18445 3 0.155198 0.0833329 0.146617
18446 3 0.183345 0.416667 0.146617
18447 3 0.169271 0.75 0.170988
18451 3 0.155198 0.583333 0.146617
18452 3 0.183345 0.916667 0.146617
18453 3 0.169271 0.25 0.170988
18448 1 0.211492 0.75 0.146617
18449 1 0.197418 0.0833329 0.170988
18450 1 0.225565 0.416667 0.170988
18454 1 0.211492 0.25 0.146617
18455 1 0.197418 0.583333 0.170988
18456 1 0.225565 0.916667 0.170988
18457 1 0.239639 0.0833329 0.146617
18459 1 0.253713 0.75 0.170988
18463 1 0.239639 0.583333 0.146617
18465 1 0.253713 0.25 0.170988
18458 1 0.267786 0.416667 0.146617
18460 1 0.295933 0.75 0.146617
18461 1 0.28186 0.0833329 0.170988
18462 1 0.310007 0.416667 0.170988
18464 1 0.267786 0.916667 0.146617
18466 1 0.295933 0.25 0.146617
18467 1 0.28186 0.583333 0.170988
18468 1 0.310007 0.916667 0.170988
18469 1 0.32408 0.0833329 0.146617
18470 1 0.352228 0.416667 0.146617
18471 1 0.338154 0.75 0.170988
18472 1 0.380375 0.75 0.146617
18473 1 0.366301 0.0833329 0.170988
18475 1 0.32408 0.583333 0.146617
18476 1 0.352228 0.916667 0.146617
18477 1 0.338154 0.25 0.170988
18478 1 0.380375 0.25 0.146617
18479 1 0.366301 0.583333 0.170988
18474 1 0.394448 0.416667 0.170988
18480 1 0.394448 0.916667 0.170988
18481 1 0.408522 0.0833329 0.146617
18482 1 0.436669 0.416667 0.146617
18483 1 0.422595 0.75 0.170988
18487 1 0.408522 0.583333 0.146617
18488 1 0.436669 0.916667 0.146617
18489 1 0.422595 0.25 0.170988
18484 1 0.464816 0.75 0.146617
18485 1 0.450743 0.0833329 0.170988
18486 1 0.47889 0.416667 0.170988
18490 1 0.464816 0.25 0.146617
18491 1 0.450743 0.583333 0.170988
18492 1 0.47889 0.916667 0.170988
18493 1 0.492963 0.0833329 0.146617
18499 1 0.492963 0.583333 0.146617
18986 3 0.0989034 0.416667 0.19536
18987 3 0.0848298 0.75 0.219731
18988 3 0.127051 0.75 0.19536
18989 3 0.112977 0.0833329 0.219731
18992 3 0.0989034 0.916667 0.19536
18993 3 0.0848298 0.25 0.219731
18994 3 0.127051 0.25 0.19536
18995 3 0.112977 0.583333 0.219731
19537 3 0.0707563 0.0833329 0.244102
19538 3 0.0989034 0.416667 0.244102
19540 1 0.127051 0.75 0.244102
19543 3 0.0707563 0.583333 0.244102
19544 3 0.0989034 0.916667 0.244102
19546 1 0.127051 0.25 0.244102
18990 1 0.141124 0.416667 0.219731
18996 1 0.141124 0.916667 0.219731
18997 1 0.155198 0.0833329 0.19536
18998 1 0.183345 0.416667 0.19536
18999 1 0.169271 0.75 0.219731
19003 1 0.155198 0.583333 0.19536
19004 1 0.183345 0.916667 0.19536
19005 1 0.169271 0.25 0.219731
19549 1 0.155198 0.0833329 0.244102
19550 1 0.183345 0.416667 0.244102
19555 1 0.155198 0.583333 0.244102
19556 1 0.183345 0.916667 0.244102
19000 1 0.211492 0.75 0.19536
19001 1 0.197418 0.0833329 0.219731
19002 1 0.225565 0.416667 0.219731
19006 1 0.211492 0.25 0.19536
19007 1 0.197418 0.583333 0.219731
19008 1 0.225565 0.916667 0.219731
19009 1 0.239639 0.0833329 0.19536
19011 1 0.253713 0.75 0.219731
19015 1 0.239639 0.583333 0.19536
19017 1 0.253713 0.25 0.219731
19552 1 0.211492 0.75 0.244102
19558 1 0.211492 0.25 0.244102
19561 1 0.239639 0.0833329 0.244102
19567 1 0.239639 0.583333 0.244102
19010 1 0.267786 0.416667 0.19536
19012 1 0.295933 0.75 0.19536
19013 1 0.28186 0.0833329 0.219731
19014 1 0.310007 0.416667 0.219731
19016 1 0.267786 0.916667 0.19536
19018 1 0.295933 0.25 0.19536
19019 1 0.28186 0.583333 0.219731
19020 1 0.310007 0.916667 0.219731
19562 1 0.267786 0.416667 0.244102
19564 1 0.295933 0.75 0.244102
19568 1 0.267786 0.916667 0.244102
19570 1 0.295933 0.25 0.244102
19021 1 0.32408 0.0833329 0.19536
19022 1 0.352228 0.416667 0.19536
19023 1 0.338154 0.75 0.219731
19024 1 0.380375 0.75 0.19536
19025 1 0.366301 0.0833329 0.219731
19027 1 0.32408 0.583333 0.19536
19028 1 0.352228 0.916667 0.19536
19029 1 0.338154 0.25 0.219731
19030 1 0.380375 0.25 0.19536
19031 1 0.366301 0.583333 0.219731
19573 1 0.32408 0.0833329 0.244102
19574 1 0.352228 0.416667 0.244102
19576 1 0.380375 0.75 0.244102
19579 1 0.32408 0.583333 0.244102
19580 1 0.352228 0.916667 0.244102
19582 1 0.380375 0.25 0.244102
19026 1 0.394448 0.416667 0.219731
19032 1 0.394448 0.916667 0.219731
19033 1 0.408522 0.0833329 0.19536
19034 1 0.436669 0.416667 0.19536
19035 1 0.422595 0.75 0.219731
19039 1 0.408522 0.583333 0.19536
19040 1 0.436669 0.916667 0.19536
19041 1 0.422595 0.25 0.219731
19585 1 0.408522 0.0833329 0.244102
19586 1 0.436669 0.416667 0.244102
19591 1 0.408522 0.583333 0.244102
19592 1 0.436669 0.916667 0.244102
19036 1 0.464816 0.75 0.19536
19037 1 0.450743 0.0833329 0.219731
19038 1 0.47889 0.416667 0.219731
19042 1 0.464816 0.25 0.19536
19043 1 0.450743 0.583333 0.219731
19044 1 0.47889 0.916667 0.219731
19588 1 0.464816 0.75 0.244102
19594 1 0.464816 0.25 0.244102
19045 1 0.492963 0.0833329 0.19536
19051 1 0.492963 0.583333 0.19536
19597 1 0.492963 0.0833329 0.244102
19603 1 0.492963 0.583333 0.244102
19530 3 0.0566827 0.416667 0.268473
19536 3 0.0566827 0.916667 0.268473
20080 3 0.0426091 0.75 0.292845
20086 3 0.0426091 0.25 0.292845
19539 3 0.0848298 0.75 0.268473
19541 1 0.112977 0.0833329 0.268473
19545 3 0.0848298 0.25 0.268473
19547 1 0.112977 0.583333 0.268473
20089 3 0.0707563 0.0833329 0.292845
20090 1 0.0989034 0.416667 0.292845
20092 1 0.127051 0.75 0.292845
20095 3 0.0707563 0.583333 0.292845
20096 1 0.0989034 0.916667 0.292845
20098 1 0.127051 0.25 0.292845
19542 1 0.141124 0.416667 0.268473
19548 1 0.141124 0.916667 0.268473
19551 1 0.169271 0.75 0.268473
19557 1 0.169271 0.25 0.268473
20101 1 0.155198 0.0833329 0.292845
20102 1 0.183345 0.416667 0.292845
20107 1 0.155198 0.583333 0.292845
20108 1 0.183345 0.916667 0.292845
19553 1 0.197418 0.0833329 0.268473
19554 1 0.225565 0.416667 0.268473
19559 1 0.197418 0.583333 0.268473
19560 1 0.225565 0.916667 0.268473
19563 1 0.253713 0.75 0.268473
19569 1 0.253713 0.25 0.268473
20104 1 0.211492 0.75 0.292845
20110 1 0.211492 0.25 0.292845
20113 1 0.239639 0.0833329 0.292845
20119 1 0.239639 0.583333 0.292845
19565 1 0.28186 0.0833329 0.268473
19566 1 0.310007 0.416667 0.268473
19571 1 0.28186 0.583333 0.268473
19572 1 0.310007 0.916667 0.268473
20114 1 0.267786 0.416667 0.292845
20116 1 0.295933 0.75 0.292845
20120 1 0.267786 0.916667 0.292845
20122 1 0.295933 0.25 0.292845
19575 1 0.338154 0.75 0.268473
20134 1 0.380375 0.25 0.292845
19577 1 0.366301 0.0833329 0.268473
20132 1 0.352228 0.916667 0.292845
19581 1 0.338154 0.25 0.268473
20131 1 0.32408 0.583333 0.292845
19583 1 0.366301 0.583333 0.268473
20128 1 0.380375 0.75 0.292845
20126 1 0.352228 0.416667 0.292845
20125 1 0.32408 0.0833329 0.292845
20144 1 0.436669 0.916667 0.292845
20143 1 0.408522 0.583333 0.292845
20138 1 0.436669 0.416667 0.292845
20137 1 0.408522 0.0833329 0.292845
19578 1 0.394448 0.416667 0.268473
19584 1 0.394448 0.916667 0.268473
19587 1 0.422595 0.75 0.268473
19593 1 0.422595 0.25 0.268473
20146 1 0.464816 0.25 0.292845
20140 1 0.464816 0.75 0.292845
19589 1 0.450743 0.0833329 0.268473
19590 1 0.47889 0.416667 0.268473
19595 1 0.450743 0.583333 0.268473
19596 1 0.47889 0.916667 0.268473
20149 1 0.492963 0.0833329 0.292845
20155 1 0.492963 0.583333 0.292845
20640 1 0.0566827 0.916667 0.365958
20639 3 0.0285356 0.583333 0.365958
20638 3 0.0426091 0.25 0.341587
20634 1 0.0566827 0.416667 0.365958
20633 3 0.0285356 0.0833329 0.365958
20632 3 0.0426091 0.75 0.341587
20082 3 0.0566827 0.416667 0.317216
20088 3 0.0566827 0.916667 0.317216
20651 1 0.112977 0.583333 0.365958
20650 1 0.127051 0.25 0.341587
20649 1 0.0848298 0.25 0.365958
20648 1 0.0989034 0.916667 0.341587
20647 1 0.0707563 0.583333 0.341587
20645 1 0.112977 0.0833329 0.365958
20644 1 0.127051 0.75 0.341587
20643 1 0.0848298 0.75 0.365958
20642 1 0.0989034 0.416667 0.341587
20641 1 0.0707563 0.0833329 0.341587
20091 1 0.0848298 0.75 0.317216
20093 1 0.112977 0.0833329 0.317216
20097 1 0.0848298 0.25 0.317216
20099 1 0.112977 0.583333 0.317216
20661 1 0.169271 0.25 0.365958
20660 1 0.183345 0.916667 0.341587
20659 1 0.155198 0.583333 0.341587
20655 1 0.169271 0.75 0.365958
20654 1 0.183345 0.416667 0.341587
20653 1 0.155198 0.0833329 0.341587
20652 1 0.141124 0.916667 0.365958
20646 1 0.141124 0.416667 0.365958
20094 1 0.141124 0.416667 0.317216
20100 1 0.141124 0.916667 0.317216
20103 1 0.169271 0.75 0.317216
20109 1 0.169271 0.25 0.317216
20673 1 0.253713 0.25 0.365958
20671 1 0.239639 0.583333 0.341587
20667 1 0.253713 0.75 0.365958
20665 1 0.239639 0.0833329 0.341587
20664 1 0.225565 0.916667 0.365958
20663 1 0.197418 0.583333 0.365958
20662 1 0.211492 0.25 0.341587
20658 1 0.225565 0.416667 0.365958
20657 1 0.197418 0.0833329 0.365958
20656 1 0.211492 0.75 0.341587
20105 1 0.197418 0.0833329 0.317216
20106 1 0.225565 0.416667 0.317216
20111 1 0.197418 0.583333 0.317216
20112 1 0.225565 0.916667 0.317216
20115 1 0.253713 0.75 0.317216
20121 1 0.253713 0.25 0.317216
20676 1 0.310007 0.916667 0.365958
20675 1 0.28186 0.583333 0.365958
20674 1 0.295933 0.25 0.341587
20672 1 0.267786 0.916667 0.341587
20670 1 0.310007 0.416667 0.365958
20669 1 0.28186 0.0833329 0.365958
20668 1 0.295933 0.75 0.341587
20666 1 0.267786 0.416667 0.341587
20117 1 0.28186 0.0833329 0.317216
20118 1 0.310007 0.416667 0.317216
20123 1 0.28186 0.583333 0.317216
20124 1 0.310007 0.916667 0.317216
20687 1 0.366301 0.583333 0.365958
20686 1 0.380375 0.25 0.341587
20685 1 0.338154 0.25 0.365958
20684 1 0.352228 0.916667 0.341587
20683 1 0.32408 0.583333 0.341587
20681 1 0.366301 0.0833329 0.365958
20680 1 0.380375 0.75 0.341587
20679 1 0.338154 0.75 0.365958
20678 1 0.352228 0.416667 0.341587
20677 1 0.32408 0.0833329 0.341587
20135 1 0.366301 0.583333 0.317216
20133 1 0.338154 0.25 0.317216
20129 1 0.366301 0.0833329 0.317216
20127 1 0.338154 0.75 0.317216
20697 1 0.422595 0.25 0.365958
20696 1 0.436669 0.916667 0.341587
20695 1 0.408522 0.583333 0.341587
20691 1 0.422595 0.75 0.365958
20690 1 0.436669 0.416667 0.341587
20689 1 0.408522 0.0833329 0.341587
20688 1 0.394448 0.916667 0.365958
20682 1 0.394448 0.416667 0.365958
20145 1 0.422595 0.25 0.317216
20139 1 0.422595 0.75 0.317216
20136 1 0.394448 0.916667 0.317216
20130 1 0.394448 0.416667 0.317216
20700 1 0.47889 0.916667 0.365958
20699 1 0.450743 0.583333 0.365958
20698 1 0.464816 0.25 0.341587
20694 1 0.47889 0.416667 0.365958
20693 1 0.450743 0.0833329 0.365958
20692 1 0.464816 0.75 0.341587
20148 1 0.47889 0.916667 0.317216
20147 1 0.450743 0.583333 0.317216
20142 1 0.47889 0.416667 0.317216
20141 1 0.450743 0.0833329 0.317216
20707 1 0.492963 0.583333 0.341587
20701 1 0.492963 0.0833329 0.341587
21742 1 0.0426091 0.25 0.439072
21740 3 0.014462 0.916667 0.439072
21736 1 0.0426091 0.75 0.439072
21734 3 0.014462 0.416667 0.439072
21192 1 0.0566827 0.916667 0.414701
21191 3 0.0285356 0.583333 0.414701
21190 3 0.0426091 0.25 0.390329
21188 3 0.014462 0.916667 0.390329
21186 1 0.0566827 0.416667 0.414701
21185 3 0.0285356 0.0833329 0.414701
21184 3 0.0426091 0.75 0.390329
21182 3 0.014462 0.416667 0.390329
21754 1 0.127051 0.25 0.439072
21752 1 0.0989034 0.916667 0.439072
21751 1 0.0707563 0.583333 0.439072
21748 1 0.127051 0.75 0.439072
21746 1 0.0989034 0.416667 0.439072
21745 1 0.0707563 0.0833329 0.439072
21203 1 0.112977 0.583333 0.414701
21202 1 0.127051 0.25 0.390329
21201 1 0.0848298 0.25 0.414701
21200 1 0.0989034 0.916667 0.390329
21199 1 0.0707563 0.583333 0.390329
21197 1 0.112977 0.0833329 0.414701
21196 1 0.127051 0.75 0.390329
21195 1 0.0848298 0.75 0.414701
21194 1 0.0989034 0.416667 0.390329
21193 1 0.0707563 0.0833329 0.390329
21764 1 0.183345 0.916667 0.439072
21763 1 0.155198 0.583333 0.439072
21758 1 0.183345 0.416667 0.439072
21757 1 0.155198 0.0833329 0.439072
21213 1 0.169271 0.25 0.414701
21212 1 0.183345 0.916667 0.390329
21211 1 0.155198 0.583333 0.390329
21207 1 0.169271 0.75 0.414701
21206 1 0.183345 0.416667 0.390329
21205 1 0.155198 0.0833329 0.390329
21204 1 0.141124 0.916667 0.414701
21198 1 0.141124 0.416667 0.414701
21775 1 0.239639 0.583333 0.439072
21769 1 0.239639 0.0833329 0.439072
21766 1 0.211492 0.25 0.439072
21760 1 0.211492 0.75 0.439072
21225 1 0.253713 0.25 0.414701
21223 1 0.239639 0.583333 0.390329
21219 1 0.253713 0.75 0.414701
21217 1 0.239639 0.0833329 0.390329
21216 1 0.225565 0.916667 0.414701
21215 1 0.197418 0.583333 0.414701
21214 1 0.211492 0.25 0.390329
21210 1 0.225565 0.416667 0.414701
21209 1 0.197418 0.0833329 0.414701
21208 1 0.211492 0.75 0.390329
21778 1 0.295933 0.25 0.439072
21776 1 0.267786 0.916667 0.439072
21772 1 0.295933 0.75 0.439072
21770 1 0.267786 0.416667 0.439072
21228 1 0.310007 0.916667 0.414701
21227 1 0.28186 0.583333 0.414701
21226 1 0.295933 0.25 0.390329
21224 1 0.267786 0.916667 0.390329
21222 1 0.310007 0.416667 0.414701
21221 1 0.28186 0.0833329 0.414701
21220 1 0.295933 0.75 0.390329
21218 1 0.267786 0.416667 0.390329
21790 1 0.380375 0.25 0.439072
21788 1 0.352228 0.916667 0.439072
21787 1 0.32408 0.583333 0.439072
21784 1 0.380375 0.75 0.439072
21782 1 0.352228 0.416667 0.439072
21781 1 0.32408 0.0833329 0.439072
21239 1 0.366301 0.583333 0.414701
21238 1 0.380375 0.25 0.390329
21237 1 0.338154 0.25 0.414701
21236 1 0.352228 0.916667 0.390329
21235 1 0.32408 0.583333 0.390329
21233 1 0.366301 0.0833329 0.414701
21232 1 0.380375 0.75 0.390329
21231 1 0.338154 0.75 0.414701
21230 1 0.352228 0.416667 0.390329
21229 1 0.32408 0.0833329 0.390329
21800 1 0.436669 0.916667 0.439072
21799 1 0.408522 0.583333 0.439072
21794 1 0.436669 0.416667 0.439072
21793 1 0.408522 0.0833329 0.439072
21249 1 0.422595 0.25 0.414701
21248 1 0.436669 0.916667 0.390329
21247 1 0.408522 0.583333 0.390329
21243 1 0.422595 0.75 0.414701
21242 1 0.436669 0.416667 0.390329
21241 1 0.408522 0.0833329 0.390329
21240 1 0.394448 0.916667 0.414701
21234 1 0.394448 0.416667 0.414701
21802 1 0.464816 0.25 0.439072
21796 1 0.464816 0.75 0.439072
21252 1 0.47889 0.916667 0.414701
21251 1 0.450743 0.583333 0.414701
21250 1 0.464816 0.25 0.390329
21246 1 0.47889 0.416667 0.414701
21245 1 0.450743 0.0833329 0.414701
21244 1 0.464816 0.75 0.390329
21811 1 0.492963 0.583333 0.439072
21805 1 0.492963 0.0833329 0.439072
21259 1 0.492963 0.583333 0.390329
21253 1 0.492963 0.0833329 0.390329
21744 1 0.0566827 0.916667 0.463443
21743 3 0.0285356 0.583333 0.463443
21741 3 0.00038843 0.25 0.463443
21738 1 0.0566827 0.416667 0.463443
21737 3 0.0285356 0.0833329 0.463443
21735 3 0.00038843 0.75 0.463443
22286 3 0.014462 0.416667 0.487814
22288 1 0.0426091 0.75 0.487814
22292 3 0.014462 0.916667 0.487814
22294 1 0.0426091 0.25 0.487814
21755 1 0.112977 0.583333 0.463443
21753 1 0.0848298 0.25 0.463443
21749 1 0.112977 0.0833329 0.463443
21747 1 0.0848298 0.75 0.463443
22297 1 0.0707563 0.0833329 0.487814
22298 1 0.0989034 0.416667 0.487814
22300 1 0.127051 0.75 0.487814
22303 1 0.0707563 0.583333 0.487814
22304 1 0.0989034 0.916667 0.487814
22306 1 0.127051 0.25 0.487814
21765 1 0.169271 0.25 0.463443
21759 1 0.169271 0.75 0.463443
21756 1 0.141124 0.916667 0.463443
21750 1 0.141124 0.416667 0.463443
22309 1 0.155198 0.0833329 0.487814
22310 1 0.183345 0.416667 0.487814
22315 1 0.155198 0.583333 0.487814
22316 1 0.183345 0.916667 0.487814
21777 1 0.253713 0.25 0.463443
21771 1 0.253713 0.75 0.463443
21768 1 0.225565 0.916667 0.463443
21767 1 0.197418 0.583333 0.463443
21762 1 0.225565 0.416667 0.463443
21761 1 0.197418 0.0833329 0.463443
22312 1 0.211492 0.75 0.487814
22318 1 0.211492 0.25 0.487814
22321 1 0.239639 0.0833329 0.487814
22327 1 0.239639 0.583333 0.487814
21780 1 0.310007 0.916667 0.463443
21779 1 0.28186 0.583333 0.463443
21774 1 0.310007 0.416667 0.463443
21773 1 0.28186 0.0833329 0.463443
22322 1 0.267786 0.416667 0.487814
22324 1 0.295933 0.75 0.487814
22328 1 0.267786 0.916667 0.487814
22330 1 0.295933 0.25 0.487814
21791 1 0.366301 0.583333 0.463443
21789 1 0.338154 0.25 0.463443
21785 1 0.366301 0.0833329 0.463443
21783 1 0.338154 0.75 0.463443
22333 1 0.32408 0.0833329 0.487814
22334 1 0.352228 0.416667 0.487814
22336 1 0.380375 0.75 0.487814
22339 1 0.32408 0.583333 0.487814
22340 1 0.352228 0.916667 0.487814
22342 1 0.380375 0.25 0.487814
21801 1 0.422595 0.25 0.463443
21795 1 0.422595 0.75 0.463443
21792 1 0.394448 0.916667 0.463443
21786 1 0.394448 0.416667 0.463443
22345 1 0.408522 0.0833329 0.487814
22346 1 0.436669 0.416667 0.487814
22351 1 0.408522 0.583333 0.487814
22352 1 0.436669 0.916667 0.487814
21804 1 0.47889 0.916667 0.463443
21803 1 0.450743 0.583333 0.463443
21798 1 0.47889 0.416667 0.463443
21797 1 0.450743 0.0833329 0.463443
22348 1 0.464816 0.75 0.487814
22354 1 0.464816 0.25 0.487814
22357 1 0.492963 0.0833329 0.487814
22363 1 0.492963 0.583333 0.487814
22287 3 0.00038843 0.75 0.512186
22289 3 0.0285356 0.0833329 0.512186
22290 1 0.0566827 0.416667 0.512186
22293 3 0.00038843 0.25 0.512186
22295 3 0.0285356 0.583333 0.512186
22296 1 0.0566827 0.916667 0.512186
22838 3 0.014462 0.416667 0.536557
22839 3 0.00038843 0.75 0.560928
22840 1 0.0426091 0.75 0.536557
22841 3 0.0285356 0.0833329 0.560928
22842 1 0.0566827 0.416667 0.560928
22844 3 0.014462 0.916667 0.536557
22845 3 0.00038843 0.25 0.560928
22846 1 0.0426091 0.25 0.536557
22847 3 0.0285356 0.583333 0.560928
22848 1 0.0566827 0.916667 0.560928
22299 1 0.0848298 0.75 0.512186
22301 1 0.112977 0.0833329 0.512186
22305 1 0.0848298 0.25 0.512186
22307 1 0.112977 0.583333 0.512186
22849 1 0.0707563 0.0833329 0.536557
22850 1 0.0989034 0.416667 0.536557
22851 1 0.0848298 0.75 0.560928
22852 1 0.127051 0.75 0.536557
22853 1 0.112977 0.0833329 0.560928
22855 1 0.0707563 0.583333 0.536557
22856 1 0.0989034 0.916667 0.536557
22857 1 0.0848298 0.25 0.560928
22858 1 0.127051 0.25 0.536557
22859 1 0.112977 0.583333 0.560928
22302 1 0.141124 0.416667 0.512186
22308 1 0.141124 0.916667 0.512186
22311 1 0.169271 0.75 0.512186
22317 1 0.169271 0.25 0.512186
22854 1 0.141124 0.416667 0.560928
22860 1 0.141124 0.916667 0.560928
22861 1 0.155198 0.0833329 0.536557
22862 1 0.183345 0.416667 0.536557
22863 1 0.169271 0.75 0.560928
22867 1 0.155198 0.583333 0.536557
22868 1 0.183345 0.916667 0.536557
22869 1 0.169271 0.25 0.560928
22313 1 0.197418 0.0833329 0.512186
22314 1 0.225565 0.416667 0.512186
22319 1 0.197418 0.583333 0.512186
22320 1 0.225565 0.916667 0.512186
22323 1 0.253713 0.75 0.512186
22329 1 0.253713 0.25 0.512186
22864 1 0.211492 0.75 0.536557
22865 1 0.197418 0.0833329 0.560928
22866 1 0.225565 0.416667 0.560928
22870 1 0.211492 0.25 0.536557
22871 1 0.197418 0.583333 0.560928
22872 1 0.225565 0.916667 0.560928
22873 1 0.239639 0.0833329 0.536557
22875 1 0.253713 0.75 0.560928
22879 1 0.239639 0.583333 0.536557
22881 1 0.253713 0.25 0.560928
22325 1 0.28186 0.0833329 0.512186
22326 1 0.310007 0.416667 0.512186
22331 1 0.28186 0.583333 0.512186
22332 1 0.310007 0.916667 0.512186
22874 1 0.267786 0.416667 0.536557
22876 1 0.295933 0.75 0.536557
22877 1 0.28186 0.0833329 0.560928
22878 1 0.310007 0.416667 0.560928
22880 1 0.267786 0.916667 0.536557
22882 1 0.295933 0.25 0.536557
22883 1 0.28186 0.583333 0.560928
22884 1 0.310007 0.916667 0.560928
22335 1 0.338154 0.75 0.512186
22337 1 0.366301 0.0833329 0.512186
22341 1 0.338154 0.25 0.512186
22343 1 0.366301 0.583333 0.512186
22885 1 0.32408 0.0833329 0.536557
22886 1 0.352228 0.416667 0.536557
22887 1 0.338154 0.75 0.560928
22888 1 0.380375 0.75 0.536557
22889 1 0.366301 0.0833329 0.560928
22891 1 0.32408 0.583333 0.536557
22892 1 0.352228 0.916667 0.536557
22893 1 0.338154 0.25 0.560928
22894 1 0.380375 0.25 0.536557
22895 1 0.366301 0.583333 0.560928
22338 1 0.394448 0.416667 0.512186
22344 1 0.394448 0.916667 0.512186
22347 1 0.422595 0.75 0.512186
22353 1 0.422595 0.25 0.512186
22890 1 0.394448 0.416667 0.560928
22896 1 0.394448 0.916667 0.560928
22897 1 0.408522 0.0833329 0.536557
22898 1 0.436669 0.416667 0.536557
22899 1 0.422595 0.75 0.560928
22903 1 0.408522 0.583333 0.536557
22904 1 0.436669 0.916667 0.536557
22905 1 0.422595 0.25 0.560928
22349 1 0.450743 0.0833329 0.512186
22350 1 0.47889 0.416667 0.512186
22355 1 0.450743 0.583333 0.512186
22356 1 0.47889 0.916667 0.512186
22900 1 0.464816 0.75 0.536557
22901 1 0.450743 0.0833329 0.560928
22902 1 0.47889 0.416667 0.560928
22906 1 0.464816 0.25 0.536557
22907 1 0.450743 0.583333 0.560928
22908 1 0.47889 0.916667 0.560928
22909 1 0.492963 0.0833329 0.536557
22915 1 0.492963 0.583333 0.536557
23390 3 0.014462 0.416667 0.585299
23392 3 0.0426091 0.75 0.585299
23393 3 0.0285356 0.0833329 0.609671
23394 1 0.0566827 0.416667 0.609671
23396 3 0.014462 0.916667 0.585299
23398 3 0.0426091 0.25 0.585299
23399 3 0.0285356 0.583333 0.609671
23400 1 0.0566827 0.916667 0.609671
23401 1 0.0707563 0.0833329 0.585299
23402 1 0.0989034 0.416667 0.585299
23403 1 0.0848298 0.75 0.609671
23404 1 0.127051 0.75 0.585299
23405 1 0.112977 0.0833329 0.609671
23407 1 0.0707563 0.583333 0.585299
23408 1 0.0989034 0.916667 0.585299
23409 1 0.0848298 0.25 0.609671
23410 1 0.127051 0.25 0.585299
23411 1 0.112977 0.583333 0.609671
23406 1 0.141124 0.416667 0.609671
23412 1 0.141124 0.916667 0.609671
23413 1 0.155198 0.0833329 0.585299
23414 1 0.183345 0.416667 0.585299
23415 1 0.169271 0.75 0.609671
23419 1 0.155198 0.583333 0.585299
23420 1 0.183345 0.916667 0.585299
23421 1 0.169271 0.25 0.609671
23416 1 0.211492 0.75 0.585299
23417 1 0.197418 0.0833329 0.609671
23418 1 0.225565 0.416667 0.609671
23422 1 0.211492 0.25 0.585299
23423 1 0.197418 0.583333 0.609671
23424 1 0.225565 0.916667 0.609671
23425 1 0.239639 0.0833329 0.585299
23427 1 0.253713 0.75 0.609671
23431 1 0.239639 0.583333 0.585299
23433 1 0.253713 0.25 0.609671
23426 1 0.267786 0.416667 0.585299
23428 1 0.295933 0.75 0.585299
23429 1 0.28186 0.0833329 0.609671
23430 1 0.310007 0.416667 0.609671
23432 1 0.267786 0.916667 0.585299
23434 1 0.295933 0.25 0.585299
23435 1 0.28186 0.583333 0.609671
23436 1 0.310007 0.916667 0.609671
23437 1 0.32408 0.0833329 0.585299
23438 1 0.352228 0.416667 0.585299
23439 1 0.338154 0.75 0.609671
23440 1 0.380375 0.75 0.585299
23441 1 0.366301 0.0833329 0.609671
23443 1 0.32408 0.583333 0.585299
23444 1 0.352228 0.916667 0.585299
23445 1 0.338154 0.25 0.609671
23446 1 0.380375 0.25 0.585299
23447 1 0.366301 0.583333 0.609671
23442 1 0.394448 0.416667 0.609671
23448 1 0.394448 0.916667 0.609671
23449 1 0.408522 0.0833329 0.585299
23450 1 0.436669 0.416667 0.585299
23451 1 0.422595 0.75 0.609671
23455 1 0.408522 0.583333 0.585299
23456 1 0.436669 0.916667 0.585299
23457 1 0.422595 0.25 0.609671
23452 1 0.464816 0.75 0.585299
23453 1 0.450743 0.0833329 0.609671
23454 1 0.47889 0.416667 0.609671
23458 1 0.464816 0.25 0.585299
23459 1 0.450743 0.583333 0.609671
23460 1 0.47889 0.916667 0.609671
23461 1 0.492963 0.0833329 0.585299
23467 1 0.492963 0.583333 0.585299
23942 3 0.014462 0.416667 0.634042
23944 3 0.0426091 0.75 0.634042
23945 3 0.0285356 0.0833329 0.658413
23946 3 0.0566827 0.416667 0.658413
23948 3 0.014462 0.916667 0.634042
23950 3 0.0426091 0.25 0.634042
23951 3 0.0285356 0.583333 0.658413
23952 3 0.0566827 0.916667 0.658413
24496 3 0.0426091 0.75 0.682784
24502 3 0.0426091 0.25 0.682784
23953 1 0.0707563 0.0833329 0.634042
23954 1 0.0989034 0.416667 0.634042
23955 1 0.0848298 0.75 0.658413
23956 1 0.127051 0.75 0.634042
23957 1 0.112977 0.0833329 0.658413
23959 1 0.0707563 0.583333 0.634042
23960 1 0.0989034 0.916667 0.634042
23961 1 0.0848298 0.25 0.658413
23962 1 0.127051 0.25 0.634042
23963 1 0.112977 0.583333 0.658413
24505 3 0.0707563 0.0833329 0.682784
24506 1 0.0989034 0.416667 0.682784
24508 1 0.127051 0.75 0.682784
24511 3 0.0707563 0.583333 0.682784
24512 1 0.0989034 0.916667 0.682784
24514 1 0.127051 0.25 0.682784
23958 1 0.141124 0.416667 0.658413
23964 1 0.141124 0.916667 0.658413
23965 1 0.155198 0.0833329 0.634042
23966 1 0.183345 0.416667 0.634042
23967 1 0.169271 0.75 0.658413
23971 1 0.155198 0.583333 0.634042
23972 1 0.183345 0.916667 0.634042
23973 1 0.169271 0.25 0.658413
24517 1 0.155198 0.0833329 0.682784
24518 1 0.183345 0.416667 0.682784
24523 1 0.155198 0.583333 0.682784
24524 1 0.183345 0.916667 0.682784
23968 1 0.211492 0.75 0.634042
23969 1 0.197418 0.0833329 0.658413
23970 1 0.225565 0.416667 0.658413
23974 1 0.211492 0.25 0.634042
23975 1 0.197418 0.583333 0.658413
23976 1 0.225565 0.916667 0.658413
23977 1 0.239639 0.0833329 0.634042
23979 1 0.253713 0.75 0.658413
23983 1 0.239639 0.583333 0.634042
23985 1 0.253713 0.25 0.658413
24520 1 0.211492 0.75 0.682784
24526 1 0.211492 0.25 0.682784
24529 1 0.239639 0.0833329 0.682784
24535 1 0.239639 0.583333 0.682784
23978 1 0.267786 0.416667 0.634042
23980 1 0.295933 0.75 0.634042
23981 1 0.28186 0.0833329 0.658413
23982 1 0.310007 0.416667 0.658413
23984 1 0.267786 0.916667 0.634042
23986 1 0.295933 0.25 0.634042
23987 1 0.28186 0.583333 0.658413
23988 1 0.310007 0.916667 0.658413
24530 1 0.267786 0.416667 0.682784
24532 1 0.295933 0.75 0.682784
24536 1 0.267786 0.916667 0.682784
24538 1 0.295933 0.25 0.682784
23989 1 0.32408 0.0833329 0.634042
23990 1 0.352228 0.416667 0.634042
23991 1 0.338154 0.75 0.658413
23992 1 0.380375 0.75 0.634042
23993 1 0.366301 0.0833329 0.658413
23995 1 0.32408 0.583333 0.634042
23996 1 0.352228 0.916667 0.634042
23997 1 0.338154 0.25 0.658413
23998 1 0.380375 0.25 0.634042
23999 1 0.366301 0.583333 0.658413
24541 1 0.32408 0.0833329 0.682784
24542 1 0.352228 0.416667 0.682784
24544 1 0.380375 0.75 0.682784
24547 1 0.32408 0.583333 0.682784
24548 1 0.352228 0.916667 0.682784
24550 1 0.380375 0.25 0.682784
23994 1 0.394448 0.416667 0.658413
24000 1 0.394448 0.916667 0.658413
24001 1 0.408522 0.0833329 0.634042
24002 1 0.436669 0.416667 0.634042
24003 1 0.422595 0.75 0.658413
24007 1 0.408522 0.583333 0.634042
24008 1 0.436669 0.916667 0.634042
24009 1 0.422595 0.25 0.658413
24553 1 0.408522 0.0833329 0.682784
24554 1 0.436669 0.416667 0.682784
24559 1 0.408522 0.583333 0.682784
24560 1 0.436669 0.916667 0.682784
24562 1 0.464816 0.25 0.682784
24004 1 0.464816 0.75 0.634042
24005 1 0.450743 0.0833329 0.658413
24006 1 0.47889 0.416667 0.658413
24010 1 0.464816 0.25 0.634042
24011 1 0.450743 0.583333 0.658413
24012 1 0.47889 0.916667 0.658413
24556 1 0.464816 0.75 0.682784
24013 1 0.492963 0.0833329 0.634042
24019 1 0.492963 0.583333 0.634042
24565 1 0.492963 0.0833329 0.682784
24571 1 0.492963 0.583333 0.682784
24498 3 0.0566827 0.416667 0.707155
24504 3 0.0566827 0.916667 0.707155
25066 1 0.127051 0.25 0.731527
25064 1 0.0989034 0.916667 0.731527
25063 3 0.0707563 0.583333 0.731527
25060 1 0.127051 0.75 0.731527
25058 1 0.0989034 0.416667 0.731527
25057 3 0.0707563 0.0833329 0.731527
24507 1 0.0848298 0.75 0.707155
24509 1 0.112977 0.0833329 0.707155